
                                 *****************
                                 * O   R   C   A *
                                 *****************

           --- An Ab Initio, DFT and Semiempirical electronic structure package ---

                  #######################################################
                  #                        -***-                        #
                  #  Department of molecular theory and spectroscopy    #
                  #              Directorship: Frank Neese              #
                  # Max Planck Institute for Chemical Energy Conversion #
                  #                  D-45470 Muelheim/Ruhr              #
                  #                       Germany                       #
                  #                                                     #
                  #                  All rights reserved                #
                  #                        -***-                        #
                  #######################################################


                         Program Version 4.0.1 -  RELEASE  -


 With contributions from (in alphabetic order):
   Daniel Aravena         : Magnetic Properties
   Michael Atanasov       : Ab Initio Ligand Field Theory
   Ute Becker             : Parallelization
   Martin Brehm           : Molecular dynamics
   Dmytro Bykov           : SCF Hessian
   Vijay G. Chilkuri      : MRCI spin determinant printing
   Dipayan Datta          : RHF DLPNO-CCSD density
   Achintya Kumar Dutta   : EOM-CC, STEOM-CC
   Dmitry Ganyushin       : Spin-Orbit,Spin-Spin,Magnetic field MRCI
   Yang Guo               : DLPNO-NEVPT2, CIM, IAO-localization
   Andreas Hansen         : Spin unrestricted coupled pair/coupled cluster methods
   Lee Huntington         : MR-EOM, pCC
   Robert Izsak           : Overlap fitted RIJCOSX, COSX-SCS-MP3, EOM
   Christian Kollmar      : KDIIS, OOCD, Brueckner-CCSD(T), CCSD density
   Simone Kossmann        : Meta GGA functionals, TD-DFT gradient, OOMP2, MP2 Hessian
   Martin Krupicka        : AUTO-CI
   Dagmar Lenk            : GEPOL surface
   Dimitrios Liakos       : Extrapolation schemes; parallel MDCI
   Dimitrios Manganas     : ROCIS; embedding schemes
   Dimitrios Pantazis     : SARC Basis sets
   Taras Petrenko         : DFT Hessian,TD-DFT gradient, ASA, ECA, R-Raman, ABS, FL, XAS/XES, NRVS
   Peter Pinski           : DLPNO-MP2
   Christoph Reimann      : Effective Core Potentials
   Marius Retegan         : Local ZFS, SOC
   Christoph Riplinger    : Optimizer, TS searches, QM/MM, DLPNO-CCSD(T), (RO)-DLPNO pert. Triples
   Tobias Risthaus        : Range-separated hybrids, TD-DFT gradient, RPA, STAB
   Michael Roemelt        : Restricted open shell CIS
   Masaaki Saitow         : Open-shell DLPNO
   Barbara Sandhoefer     : DKH picture change effects
   Kantharuban Sivalingam : CASSCF convergence, NEVPT2, FIC-MRCI
   Georgi Stoychev        : AutoAux
   Boris Wezisla          : Elementary symmetry handling
   Frank Wennmohs         : Technical directorship


 We gratefully acknowledge several colleagues who have allowed us to
 interface, adapt or use parts of their codes:
   Stefan Grimme, W. Hujo, H. Kruse,             : VdW corrections, initial TS optimization,
                  C. Bannwarth                     DFT functionals, gCP, sTDA/sTD-DF
   Ed Valeev                                     : LibInt (2-el integral package), F12 methods
   Garnet Chan, S. Sharma, J. Yang, R. Olivares  : DMRG
   Ulf Ekstrom                                   : XCFun DFT Library
   Mihaly Kallay                                 : mrcc  (arbitrary order and MRCC methods)
   Andreas Klamt, Michael Diedenhofen            : otool_cosmo (COSMO solvation model)
   Jiri Pittner, Ondrej Demel                    : Mk-CCSD
   Frank Weinhold                                : gennbo (NPA and NBO analysis)
   Christopher J. Cramer and Donald G. Truhlar   : smd solvation model


 Your calculation uses the libint2 library for the computation of 2-el integrals
 For citations please refer to: http://libint.valeyev.net

 This ORCA versions uses:
   CBLAS   interface :  Fast vector & matrix operations
   LAPACKE interface :  Fast linear algebra routines
   SCALAPACK package :  Parallel linear algebra routines


Your calculation utilizes the basis: cc-pVTZ 
       H, B-Ne : Obtained from the ccRepo (grant-hill.group.shef.ac.uk/ccrepo) Feb. 2017
                 T. H. Dunning, Jr., J. Chem. Phys. 90, 1007 (1989)
            He : Obtained from the ccRepo (grant-hill.group.shef.ac.uk/ccrepo) Feb. 2017
                 D. E. Woon, T. H. Dunning, Jr., J. Chem. Phys. 100, 2975 (1994)
  Li-Be, Na-Mg : Obtained from the ccRepo (grant-hill.group.shef.ac.uk/ccrepo) Feb. 2017
                 B. P. Prascher, D. E. Woon, K. A. Peterson, T. H. Dunning, Jr., A. K. Wilson, Theor. Chem. Acc. 128, 69 (2011)
         Al-Ar : Obtained from the ccRepo (grant-hill.group.shef.ac.uk/ccrepo) Feb. 2017
                 D. E. Woon, T. H. Dunning, Jr., J. Chem. Phys. 98, 1358 (1993)
            Ca : Obtained from the Peterson Research Group Website (tyr0.chem.wsu.edu/~kipeters) Feb. 2017
                 J. Koput, K. A. Peterson, J. Phys. Chem. 106, 9595 (2002)
         Sc-Zn : Obtained from the ccRepo (grant-hill.group.shef.ac.uk/ccrepo) Feb. 2017
                 N. B. Balabanov, K. A. Peterson, J. Chem. Phys. 123, 064107 (2005)
                 N. B. Balabanov, K. A. Peterson, J. Chem. Phys. 125, 074110 (2006)
         Ga-Kr : Obtained from the ccRepo (grant-hill.group.shef.ac.uk/ccrepo) Feb. 2017
                 A. K. Wilson, D. E. Woon, K. A. Peterson, T. H. Dunning, Jr., J. Chem. Phys. 110, 7667 (1999)
             Y : Obtained from the ccRepo (grant-hill.group.shef.ac.uk/ccrepo) Feb. 2017
                 K. A. Peterson, D. Figgen, M. Dolg, H. Stoll, J. Chem. Phys. 126, 124101 (2007)
        Ag, Au : Obtained from the Peterson Research Group Website (tyr0.chem.wsu.edu/~kipeters) Feb. 2017
                 K. A. Peterson, C. Puzzarini, Theor. Chem. Acc. 114, 283 (2005)

Your calculation utilizes the auxiliary basis: def2/J
   F. Weigend, Phys. Chem. Chem. Phys. 8, 1057 (2006).

================================================================================
                                        WARNINGS
                       Please study these warnings very carefully!
================================================================================

Warning: TCutStore was < 0. Adjusted to Thresh (uncritical)

WARNING: Geometry Optimization
  ===> : Switching off AutoStart
         For restart on a previous wavefunction, please use MOREAD

INFO   : the flag for use of LIBINT has been found!

================================================================================
                                       INPUT FILE
================================================================================
NAME = system.inp
|  1> * xyz  0 1
|  2> C +11.7012 +10.8655 +9.8691
|  3> C +10.4819 +11.2107 +9.5020
|  4> S +9.3809 +10.3398 +10.3200
|  5> C +10.4749 +9.5146 +11.2635
|  6> C +11.7070 +9.7701 +10.7683
|  7> H +12.5633 +11.5378 +9.5875
|  8> H +10.3051 +11.8641 +8.6589
|  9> H +10.2887 +8.6010 +11.8881
| 10> H +12.5373 +9.0688 +11.0543
| 11> * 
| 12> 
| 13> %pal
| 14>  nprocs 4
| 15> end
| 16> 
| 17>  
| 18> 
| 19> ! OPT DFT  PBE0 RIJK cc-pVTZ
| 20> 
| 21> 
| 22>                          ****END OF INPUT****
================================================================================

                       *****************************
                       * Geometry Optimization Run *
                       *****************************

Geometry optimization settings:
Update method            Update   .... BFGS
Choice of coordinates    CoordSys .... Redundant Internals
Initial Hessian          InHess   .... Almoef's Model

Convergence Tolerances:
Energy Change            TolE     ....  5.0000e-06 Eh
Max. Gradient            TolMAXG  ....  3.0000e-04 Eh/bohr
RMS Gradient             TolRMSG  ....  1.0000e-04 Eh/bohr
Max. Displacement        TolMAXD  ....  4.0000e-03 bohr
RMS Displacement         TolRMSD  ....  2.0000e-03 bohr

------------------------------------------------------------------------------
                        ORCA OPTIMIZATION COORDINATE SETUP
------------------------------------------------------------------------------

The optimization will be done in new redundant internal coordinates
Making redundant internal coordinates   ...  (new redundants) done
Evaluating the initial hessian          ...  (Almloef) done
Evaluating the coordinates              ...  done
Calculating the B-matrix                .... done
Calculating the G-matrix                .... done
Diagonalizing the G-matrix              .... done
The first mode is                       ....   17
The number of degrees of freedom        ....   21

    -----------------------------------------------------------------
                    Redundant Internal Coordinates


    -----------------------------------------------------------------
         Definition                    Initial Value    Approx d2E/dq
    -----------------------------------------------------------------
      1. B(C   1,C   0)                  1.3193         0.810021   
      2. B(S   2,C   1)                  1.6247         0.711194   
      3. B(C   3,S   2)                  1.6637         0.616303   
      4. B(C   4,C   3)                  1.3522         0.717745   
      5. B(C   4,C   0)                  1.4172         0.565354   
      6. B(H   5,C   0)                  1.1289         0.312104   
      7. B(H   6,C   1)                  1.0812         0.371923   
      8. B(H   7,C   3)                  1.1223         0.319860   
      9. B(H   8,C   4)                  1.1238         0.318005   
     10. A(C   1,C   0,C   4)          112.4924         0.448014   
     11. A(C   1,C   0,H   5)          118.7194         0.360439   
     12. A(C   4,C   0,H   5)          127.9830         0.339221   
     13. A(S   2,C   1,H   6)          127.2801         0.382484   
     14. A(C   0,C   1,S   2)          110.2387         0.493703   
     15. A(C   0,C   1,H   6)          121.7502         0.371428   
     16. A(C   1,S   2,C   3)           96.0725         0.496132   
     17. A(S   2,C   3,H   7)          127.6113         0.363590   
     18. A(S   2,C   3,C   4)          107.3222         0.470216   
     19. A(C   4,C   3,H   7)          120.5841         0.354580   
     20. A(C   3,C   4,H   8)          117.5204         0.354231   
     21. A(C   0,C   4,H   8)          130.3017         0.340284   
     22. A(C   0,C   4,C   3)          112.0035         0.438319   
     23. D(S   2,C   1,C   0,C   4)      5.2045         0.047542   
     24. D(H   6,C   1,C   0,H   5)     23.7900         0.047542   
     25. D(H   6,C   1,C   0,C   4)   -165.6681         0.047542   
     26. D(S   2,C   1,C   0,H   5)   -165.3374         0.047542   
     27. D(C   3,S   2,C   1,H   6)    173.0487         0.009313   
     28. D(C   3,S   2,C   1,C   0)      2.8091         0.009313   
     29. D(C   4,C   3,S   2,C   1)    -10.0980         0.007260   
     30. D(H   7,C   3,S   2,C   1)   -166.0341         0.007260   
     31. D(C   0,C   4,C   3,H   7)    172.3300         0.036440   
     32. D(C   0,C   4,C   3,S   2)     14.3673         0.036440   
     33. D(H   8,C   4,C   0,H   5)    -28.7222         0.021911   
     34. D(H   8,C   4,C   0,C   1)    161.8129         0.021911   
     35. D(C   3,C   4,C   0,H   5)    156.2854         0.021911   
     36. D(H   8,C   4,C   3,S   2)   -161.3278         0.036440   
     37. D(C   3,C   4,C   0,C   1)    -13.1795         0.021911   
     38. D(H   8,C   4,C   3,H   7)     -3.3650         0.036440   
    -----------------------------------------------------------------

Number of atoms                         .... 9
Number of degrees of freedom            .... 38

         *************************************************************
         *                GEOMETRY OPTIMIZATION CYCLE   1            *
         *************************************************************
---------------------------------
CARTESIAN COORDINATES (ANGSTROEM)
---------------------------------
  C     11.701200   10.865500    9.869100
  C     10.481900   11.210700    9.502000
  S      9.380900   10.339800   10.320000
  C     10.474900    9.514600   11.263500
  C     11.707000    9.770100   10.768300
  H     12.563300   11.537800    9.587500
  H     10.305100   11.864100    8.658900
  H     10.288700    8.601000   11.888100
  H     12.537300    9.068800   11.054300

----------------------------
CARTESIAN COORDINATES (A.U.)
----------------------------
  NO LB      ZA    FRAG     MASS         X           Y           Z
   0 C     6.0000    0    12.011   22.112063   20.532819   18.649896
   1 C     6.0000    0    12.011   19.807920   21.185153   17.956178
   2 S    16.0000    0    32.060   17.727332   19.539390   19.501974
   3 C     6.0000    0    12.011   19.794692   17.979988   21.284930
   4 C     6.0000    0    12.011   22.123024   18.462813   20.349138
   5 H     1.0000    0     1.008   23.741196   21.803282   18.117749
   6 H     1.0000    0     1.008   19.473817   22.419900   16.362950
   7 H     1.0000    0     1.008   19.442825   16.253534   22.465253
   8 H     1.0000    0     1.008   23.692063   17.137548   20.889600

--------------------------------
INTERNAL COORDINATES (ANGSTROEM)
--------------------------------
 C      0   0   0     0.000000000000     0.00000000     0.00000000
 C      1   0   0     1.319324804588     0.00000000     0.00000000
 S      2   1   0     1.624743613620   110.23867746     0.00000000
 C      3   2   1     1.663725725593    96.07250886     2.80912103
 C      4   3   2     1.352247647437   107.32221469   349.90204248
 H      1   2   3     1.128938554572   118.71941853   194.66257903
 H      2   1   3     1.081206460395   121.75016531   189.12743088
 H      4   3   2     1.122256904635   127.61127536   193.96594640
 H      5   4   3     1.123839748363   117.52038075   198.67220669

---------------------------
INTERNAL COORDINATES (A.U.)
---------------------------
 C      0   0   0     0.000000000000     0.00000000     0.00000000
 C      1   0   0     2.493162562360     0.00000000     0.00000000
 S      2   1   0     3.070320467580   110.23867746     0.00000000
 C      3   2   1     3.143985983330    96.07250886     2.80912103
 C      4   3   2     2.555377718896   107.32221469   349.90204248
 H      1   2   3     2.133384690167   118.71941853   194.66257903
 H      2   1   3     2.043184104373   121.75016531   189.12743088
 H      4   3   2     2.120758201662   127.61127536   193.96594640
 H      5   4   3     2.123749342821   117.52038075   198.67220669

---------------------
BASIS SET INFORMATION
---------------------
There are 3 groups of distinct atoms

 Group   1 Type C   : 18s5p2d1f contracted to 4s3p2d1f pattern {8811/311/11/1}
 Group   2 Type S   : 41s16p2d1f contracted to 5s4p2d1f pattern {13131311/7711/11/1}
 Group   3 Type H   : 5s2p1d contracted to 3s2p1d pattern {311/11/1}

Atom   0C    basis set group =>   1
Atom   1C    basis set group =>   1
Atom   2S    basis set group =>   2
Atom   3C    basis set group =>   1
Atom   4C    basis set group =>   1
Atom   5H    basis set group =>   3
Atom   6H    basis set group =>   3
Atom   7H    basis set group =>   3
Atom   8H    basis set group =>   3
-------------------------------
AUXILIARY BASIS SET INFORMATION
-------------------------------
There are 3 groups of distinct atoms

 Group   1 Type C   : 12s5p4d2f1g contracted to 6s4p3d1f1g pattern {711111/2111/211/2/1}
 Group   2 Type S   : 14s5p5d2f1g contracted to 8s4p3d1f1g pattern {71111111/2111/311/2/1}
 Group   3 Type H   : 5s2p1d contracted to 3s1p1d pattern {311/2/1}

Atom   0C    basis set group =>   1
Atom   1C    basis set group =>   1
Atom   2S    basis set group =>   2
Atom   3C    basis set group =>   1
Atom   4C    basis set group =>   1
Atom   5H    basis set group =>   3
Atom   6H    basis set group =>   3
Atom   7H    basis set group =>   3
Atom   8H    basis set group =>   3


           ************************************************************
           *        Program running with 4 parallel MPI-processes     *
           *              working on a common directory               *
           ************************************************************
------------------------------------------------------------------------------
                           ORCA GTO INTEGRAL CALCULATION
                           -- RI-GTO INTEGRALS CHOSEN --
------------------------------------------------------------------------------

                         BASIS SET STATISTICS AND STARTUP INFO

Gaussian basis set:
 # of primitive gaussian shells          ...  196
 # of primitive gaussian functions       ...  370
 # of contracted shells                  ...   76
 # of contracted basis functions         ...  210
 Highest angular momentum                ...    3
 Maximum contraction depth               ...   13
Auxiliary gaussian basis set:
 # of primitive gaussian shells          ...  155
 # of primitive gaussian functions       ...  421
 # of contracted shells                  ...   97
 # of contracted aux-basis functions     ...  291
 Highest angular momentum                ...    4
 Maximum contraction depth               ...    7
Ratio of auxiliary to basis functions    ...  1.39
Integral package used                  ... LIBINT
 One Electron integrals                  ... done
 Ordering auxiliary basis shells         ... done
 Integral threshhold             Thresh  ...  2.500e-11
 Primitive cut-off               TCut    ...  2.500e-12
 Pre-screening matrix                    ... done
 Shell pair data                         ... 
 Ordering of the shell pairs             ... done (   0.000 sec) 2899 of 2926 pairs
 Determination of significant pairs      ... done (   0.000 sec)
 Creation of shell pair data             ... done (   0.001 sec)
 Storage of shell pair data              ... done (   0.001 sec)
 Shell pair data done in (   0.002 sec)
 Computing two index integrals           ... done
 Cholesky decomposition of the V-matrix  ... done


Timings:
 Total evaluation time                   ...   0.375 sec (  0.006 min)
 One electron matrix time                ...   0.035 sec (  0.001 min) =  9.2%
 Schwartz matrix evaluation time         ...   0.225 sec (  0.004 min) = 59.9%
 Two index repulsion integral time       ...   0.089 sec (  0.001 min) = 23.6%
 Cholesky decomposition of V             ...   0.007 sec (  0.000 min) =  1.9%
 Three index repulsion integral time     ...   0.000 sec (  0.000 min) =  0.0%



           ************************************************************
           *        Program running with 4 parallel MPI-processes     *
           *              working on a common directory               *
           ************************************************************
-------------------------------------------------------------------------------
                                 ORCA SCF
-------------------------------------------------------------------------------

------------
SCF SETTINGS
------------
Hamiltonian:
 Density Functional     Method          .... DFT(GTOs)
 Exchange Functional    Exchange        .... PBE
   PBE kappa parameter   XKappa         ....  0.804000
   PBE mue parameter    XMuePBE         ....  0.219520
 Correlation Functional Correlation     .... PBE
   PBE beta parameter  CBetaPBE         ....  0.066725
 LDA part of GGA corr.  LDAOpt          .... PW91-LDA
 Gradients option       PostSCFGGA      .... off
 Hybrid DFT is turned on
   Fraction HF Exchange ScalHFX         ....  0.250000
   Scaling of DF-GGA-X  ScalDFX         ....  0.750000
   Scaling of DF-GGA-C  ScalDFC         ....  1.000000
   Scaling of DF-LDA-C  ScalLDAC        ....  1.000000
   Perturbative correction              ....  0.000000
   NL short-range parameter             ....  6.900000
 RI-approximation to the Coulomb term is turned on
   Number of auxiliary basis functions  .... 291
   RI-JK (J+K treated both via RI)      .... on


General Settings:
 Integral files         IntName         .... system
 Hartree-Fock type      HFTyp           .... RHF
 Total Charge           Charge          ....    0
 Multiplicity           Mult            ....    1
 Number of Electrons    NEL             ....   44
 Basis Dimension        Dim             ....  210
 Nuclear Repulsion      ENuc            ....    208.5092334953 Eh

Convergence Acceleration:
 DIIS                   CNVDIIS         .... on
   Start iteration      DIISMaxIt       ....    12
   Startup error        DIISStart       ....  0.200000
   # of expansion vecs  DIISMaxEq       ....     5
   Bias factor          DIISBfac        ....   1.050
   Max. coefficient     DIISMaxC        ....  10.000
 Newton-Raphson         CNVNR           .... off
 SOSCF                  CNVSOSCF        .... on
   Start iteration      SOSCFMaxIt      ....   150
   Startup grad/error   SOSCFStart      ....  0.003300
 Level Shifting         CNVShift        .... on
   Level shift para.    LevelShift      ....    0.2500
   Turn off err/grad.   ShiftErr        ....    0.0010
 Zerner damping         CNVZerner       .... off
 Static damping         CNVDamp         .... on
   Fraction old density DampFac         ....    0.7000
   Max. Damping (<1)    DampMax         ....    0.9800
   Min. Damping (>=0)   DampMin         ....    0.0000
   Turn off err/grad.   DampErr         ....    0.1000
 Fernandez-Rico         CNVRico         .... off

SCF Procedure:
 Maximum # iterations   MaxIter         ....   125
 SCF integral mode      SCFMode         .... Direct
   Integral package                     .... LIBINT
 Reset frequeny         DirectResetFreq ....    20
 Integral Threshold     Thresh          ....  2.500e-11 Eh
 Primitive CutOff       TCut            ....  2.500e-12 Eh

Convergence Tolerance:
 Convergence Check Mode ConvCheckMode   .... Total+1el-Energy
 Convergence forced     ConvForced      .... 0
 Energy Change          TolE            ....  1.000e-08 Eh
 1-El. energy change                    ....  1.000e-05 Eh
 Orbital Gradient       TolG            ....  1.000e-05
 Orbital Rotation angle TolX            ....  1.000e-05
 DIIS Error             TolErr          ....  5.000e-07


Diagonalization of the overlap matrix:
Smallest eigenvalue                        ... 2.058e-04
Time for diagonalization                   ...    0.035 sec
Threshold for overlap eigenvalues          ... 1.000e-08
Number of eigenvalues below threshold      ... 0
Time for construction of square roots      ...    0.009 sec
Total time needed                          ...    0.044 sec

-------------------
DFT GRID GENERATION
-------------------

General Integration Accuracy     IntAcc      ...  4.340
Radial Grid Type                 RadialGrid  ... Gauss-Chebyshev
Angular Grid (max. acc.)         AngularGrid ... Lebedev-110
Angular grid pruning method      GridPruning ... 3 (G Style)
Weight generation scheme         WeightScheme... Becke
Basis function cutoff            BFCut       ...    1.0000e-11
Integration weight cutoff        WCut        ...    1.0000e-14
Grids for H and He will be reduced by one unit

# of grid points (after initial pruning)     ...  11606 (   0.0 sec)
# of grid points (after weights+screening)   ...  11088 (   0.0 sec)
nearest neighbour list constructed           ...    0.0 sec
Grid point re-assignment to atoms done       ...    0.0 sec
Grid point division into batches done        ...    0.0 sec
Reduced shell lists constructed in    0.1 sec

Total number of grid points                  ...    11088
Total number of batches                      ...      178
Average number of points per batch           ...       62
Average number of grid points per atom       ...     1232
Average number of shells per batch           ...    66.85 (87.96%)
Average number of basis functions per batch  ...   183.50 (87.38%)
Average number of large shells per batch     ...    59.46 (88.94%)
Average number of large basis fcns per batch ...   163.28 (88.98%)
Average number of aux-shells per batch       ...    66.85 (68.92%)
Average number of aux functions per batch    ...   183.50 (63.06%)
Maximum spatial batch extension              ...  17.97, 13.36, 14.91 au
Average spatial batch extension              ...   0.81,  0.83,  0.85 au

Time for grid setup =    0.100 sec

------------------------------
INITIAL GUESS: MODEL POTENTIAL
------------------------------
Loading Hartree-Fock densities                     ... done
Calculating cut-offs                               ... done
Setting up the integral package                    ... done
Initializing the effective Hamiltonian             ... done
Starting the Coulomb interaction                   ... done (   0.0 sec)
Reading the grid                                   ... done
Mapping shells                                     ... done
Starting the XC term evaluation                    ... done (   0.1 sec)
  promolecular density results
     # of electrons  =     44.003086969
     EX              =    -46.582603226
     EC              =     -1.548382963
     EX+EC           =    -48.130986190
Transforming the Hamiltonian                       ... done (   0.0 sec)
Diagonalizing the Hamiltonian                      ... done (   0.0 sec)
Back transforming the eigenvectors                 ... done (   0.0 sec)
Now organizing SCF variables                       ... done
                      ------------------
                      INITIAL GUESS DONE (   0.3 sec)
                      ------------------
--------------
SCF ITERATIONS
--------------
ITER       Energy         Delta-E        Max-DP      RMS-DP      [F,P]     Damp
  0   -551.9957504854   0.000000000000 0.03381376  0.00099605  0.1517852 0.7000
  1   -552.0264073003  -0.030656814917 0.02596464  0.00088314  0.0954751 0.7000
                               ***Turning on DIIS***
  2   -552.0695111706  -0.043103870303 0.05175571  0.00144454  0.0368942 0.0000
  3   -552.1405558358  -0.071044665106 0.02163157  0.00071233  0.0620974 0.0000
  4   -552.1715615540  -0.031005718262 0.00936830  0.00032149  0.0238316 0.0000
  5   -552.1753587412  -0.003797187186 0.00403316  0.00014451  0.0085522 0.0000
  6   -552.1759564049  -0.000597663702 0.00185825  0.00006040  0.0035605 0.0000
                      *** Initiating the SOSCF procedure ***
                           *** Shutting down DIIS ***
                      *** Re-Reading the Fockian *** 
                      *** Removing any level shift *** 
ITER      Energy       Delta-E        Grad      Rot      Max-DP    RMS-DP
  7   -552.17603536  -0.0000789546  0.000836  0.000836  0.001570  0.000045
  8   -552.17604846  -0.0000130975  0.000212  0.000707  0.000405  0.000015
  9   -552.17604608   0.0000023720  0.000451  0.000633  0.000246  0.000009
 10   -552.17604966  -0.0000035797  0.000016  0.000065  0.000025  0.000001
 11   -552.17604967  -0.0000000008  0.000015  0.000028  0.000015  0.000000
 12   -552.17604967  -0.0000000062  0.000004  0.000010  0.000009  0.000000
 13   -552.17604967  -0.0000000000  0.000003  0.000005  0.000006  0.000000
                  ***Gradient check signals convergence***
              ***Rediagonalizing the Fockian in SOSCF/NRSCF***

               *****************************************************
               *                     SUCCESS                       *
               *           SCF CONVERGED AFTER  14 CYCLES          *
               *****************************************************

Setting up the final grid:

General Integration Accuracy     IntAcc      ...  4.670
Radial Grid Type                 RadialGrid  ... Gauss-Chebyshev
Angular Grid (max. acc.)         AngularGrid ... Lebedev-302
Angular grid pruning method      GridPruning ... 3 (G Style)
Weight generation scheme         WeightScheme... Becke
Basis function cutoff            BFCut       ...    1.0000e-11
Integration weight cutoff        WCut        ...    1.0000e-14
Grids for H and He will be reduced by one unit

# of grid points (after initial pruning)     ...  45270 (   0.0 sec)
# of grid points (after weights+screening)   ...  42834 (   0.0 sec)
nearest neighbour list constructed           ...    0.0 sec
Grid point re-assignment to atoms done       ...    0.0 sec
Grid point division into batches done        ...    0.2 sec
Reduced shell lists constructed in    0.3 sec

Total number of grid points                  ...    42834
Total number of batches                      ...      674
Average number of points per batch           ...       63
Average number of grid points per atom       ...     4759
Average number of shells per batch           ...    64.45 (84.81%)
Average number of basis functions per batch  ...   176.49 (84.04%)
Average number of large shells per batch     ...    54.87 (85.13%)
Average number of large basis fcns per batch ...   150.84 (85.46%)
Maximum spatial batch extension              ...  15.47, 13.76, 13.78 au
Average spatial batch extension              ...   0.53,  0.55,  0.53 au

Final grid set up in    0.4 sec
Final integration                            ... done (   0.4 sec)
Change in XC energy                          ...     0.000362903
Integrated number of electrons               ...    43.999991684
Previous integrated no of electrons          ...    44.004786909

----------------
TOTAL SCF ENERGY
----------------

Total Energy       :         -552.17568677 Eh          -15025.46432 eV

Components:
Nuclear Repulsion  :          208.50923350 Eh            5673.82470 eV
Electronic Energy  :         -760.68492026 Eh          -20699.28901 eV
One Electron Energy:        -1170.69439186 Eh          -31856.21394 eV
Two Electron Energy:          410.00947160 Eh           11156.92493 eV

Virial components:
Potential Energy   :        -1102.48259452 Eh          -30000.07657 eV
Kinetic Energy     :          550.30690775 Eh           14974.61225 eV
Virial Ratio       :            2.00339589


DFT components:
N(Alpha)           :       21.999995842192 electrons
N(Beta)            :       21.999995842192 electrons
N(Total)           :       43.999991684384 electrons
E(X)               :      -35.226324164569 Eh       
E(C)               :       -1.554701224508 Eh       
E(XC)              :      -36.781025389076 Eh       

---------------
SCF CONVERGENCE
---------------

  Last Energy change         ...   -3.9154e-10  Tolerance :   1.0000e-08
  Last MAX-Density change    ...    1.6114e-06  Tolerance :   1.0000e-07
  Last RMS-Density change    ...    4.3703e-08  Tolerance :   5.0000e-09
  Last Orbital Gradient      ...    4.4088e-07  Tolerance :   1.0000e-05
  Last Orbital Rotation      ...    1.3322e-06  Tolerance :   1.0000e-05

             **** THE GBW FILE WAS UPDATED (system.gbw) ****
             **** DENSITY FILE WAS UPDATED (system.scfp.tmp) ****
             **** ENERGY FILE WAS UPDATED (system.en.tmp) ****
----------------
ORBITAL ENERGIES
----------------

  NO   OCC          E(Eh)            E(eV) 
   0   2.0000     -89.082159     -2424.0488 
   1   2.0000     -10.249413      -278.9007 
   2   2.0000     -10.241303      -278.6800 
   3   2.0000     -10.232232      -278.4332 
   4   2.0000     -10.227684      -278.3094 
   5   2.0000      -7.965032      -216.7395 
   6   2.0000      -5.882722      -160.0770 
   7   2.0000      -5.878230      -159.9548 
   8   2.0000      -5.866174      -159.6267 
   9   2.0000      -0.936363       -25.4797 
  10   2.0000      -0.762458       -20.7475 
  11   2.0000      -0.755517       -20.5587 
  12   2.0000      -0.581136       -15.8135 
  13   2.0000      -0.569058       -15.4849 
  14   2.0000      -0.523539       -14.2462 
  15   2.0000      -0.435384       -11.8474 
  16   2.0000      -0.423961       -11.5366 
  17   2.0000      -0.405956       -11.0466 
  18   2.0000      -0.388744       -10.5783 
  19   2.0000      -0.343265        -9.3407 
  20   2.0000      -0.260840        -7.0978 
  21   2.0000      -0.256818        -6.9884 
  22   0.0000      -0.005684        -0.1547 
  23   0.0000       0.039271         1.0686 
  24   0.0000       0.054277         1.4770 
  25   0.0000       0.064724         1.7612 
  26   0.0000       0.082813         2.2535 
  27   0.0000       0.098669         2.6849 
  28   0.0000       0.119184         3.2432 
  29   0.0000       0.125437         3.4133 
  30   0.0000       0.201200         5.4749 
  31   0.0000       0.220845         6.0095 
  32   0.0000       0.223512         6.0821 
  33   0.0000       0.259438         7.0597 
  34   0.0000       0.270021         7.3476 
  35   0.0000       0.304332         8.2813 
  36   0.0000       0.317448         8.6382 
  37   0.0000       0.322971         8.7885 
  38   0.0000       0.337146         9.1742 
  39   0.0000       0.353255         9.6126 
  40   0.0000       0.371954        10.1214 
  41   0.0000       0.390465        10.6251 
  42   0.0000       0.401595        10.9280 
  43   0.0000       0.406326        11.0567 
  44   0.0000       0.413077        11.2404 
  45   0.0000       0.424467        11.5503 
  46   0.0000       0.436277        11.8717 
  47   0.0000       0.440268        11.9803 
  48   0.0000       0.464362        12.6359 
  49   0.0000       0.487748        13.2723 
  50   0.0000       0.494828        13.4649 
  51   0.0000       0.532905        14.5011 
  52   0.0000       0.535862        14.5815 
  53   0.0000       0.576571        15.6893 
  54   0.0000       0.619763        16.8646 
  55   0.0000       0.628916        17.1137 
  56   0.0000       0.644876        17.5480 
  57   0.0000       0.657539        17.8925 
  58   0.0000       0.665915        18.1205 
  59   0.0000       0.721322        19.6282 
  60   0.0000       0.742399        20.2017 
  61   0.0000       0.790400        21.5079 
  62   0.0000       0.804165        21.8825 
  63   0.0000       0.828059        22.5326 
  64   0.0000       0.879695        23.9377 
  65   0.0000       0.900560        24.5055 
  66   0.0000       0.924989        25.1702 
  67   0.0000       0.949693        25.8424 
  68   0.0000       0.979389        26.6505 
  69   0.0000       1.000587        27.2274 
  70   0.0000       1.019400        27.7393 
  71   0.0000       1.035607        28.1803 
  72   0.0000       1.061362        28.8811 
  73   0.0000       1.085376        29.5346 
  74   0.0000       1.128680        30.7129 
  75   0.0000       1.148204        31.2442 
  76   0.0000       1.154640        31.4194 
  77   0.0000       1.191594        32.4249 
  78   0.0000       1.224782        33.3280 
  79   0.0000       1.233863        33.5751 
  80   0.0000       1.270584        34.5743 
  81   0.0000       1.292571        35.1727 
  82   0.0000       1.307205        35.5709 
  83   0.0000       1.324223        36.0340 
  84   0.0000       1.355069        36.8733 
  85   0.0000       1.371881        37.3308 
  86   0.0000       1.410578        38.3838 
  87   0.0000       1.420570        38.6557 
  88   0.0000       1.454585        39.5813 
  89   0.0000       1.462712        39.8024 
  90   0.0000       1.530506        41.6472 
  91   0.0000       1.596739        43.4495 
  92   0.0000       1.614380        43.9295 
  93   0.0000       1.642506        44.6949 
  94   0.0000       1.669648        45.4334 
  95   0.0000       1.694541        46.1108 
  96   0.0000       1.728039        47.0223 
  97   0.0000       1.816087        49.4182 
  98   0.0000       1.843271        50.1579 
  99   0.0000       1.853738        50.4428 
 100   0.0000       1.880284        51.1651 
 101   0.0000       1.891966        51.4830 
 102   0.0000       1.960599        53.3506 
 103   0.0000       1.987420        54.0805 
 104   0.0000       1.996405        54.3250 
 105   0.0000       2.061962        56.1088 
 106   0.0000       2.151144        58.5356 
 107   0.0000       2.179892        59.3179 
 108   0.0000       2.207587        60.0715 
 109   0.0000       2.233871        60.7867 
 110   0.0000       2.280833        62.0646 
 111   0.0000       2.308521        62.8180 
 112   0.0000       2.331461        63.4423 
 113   0.0000       2.421394        65.8895 
 114   0.0000       2.425790        66.0091 
 115   0.0000       2.449292        66.6486 
 116   0.0000       2.464848        67.0719 
 117   0.0000       2.480009        67.4845 
 118   0.0000       2.543934        69.2240 
 119   0.0000       2.584501        70.3279 
 120   0.0000       2.627689        71.5031 
 121   0.0000       2.641769        71.8862 
 122   0.0000       2.668890        72.6242 
 123   0.0000       2.725708        74.1703 
 124   0.0000       2.749668        74.8223 
 125   0.0000       2.805273        76.3354 
 126   0.0000       2.837720        77.2183 
 127   0.0000       2.860907        77.8492 
 128   0.0000       2.906881        79.1003 
 129   0.0000       2.934354        79.8478 
 130   0.0000       2.942578        80.0716 
 131   0.0000       2.950952        80.2995 
 132   0.0000       2.980663        81.1080 
 133   0.0000       2.992988        81.4433 
 134   0.0000       3.014594        82.0313 
 135   0.0000       3.031370        82.4878 
 136   0.0000       3.046067        82.8877 
 137   0.0000       3.082447        83.8776 
 138   0.0000       3.099153        84.3322 
 139   0.0000       3.104886        84.4882 
 140   0.0000       3.138920        85.4144 
 141   0.0000       3.167170        86.1831 
 142   0.0000       3.189751        86.7975 
 143   0.0000       3.216481        87.5249 
 144   0.0000       3.226666        87.8021 
 145   0.0000       3.244320        88.2824 
 146   0.0000       3.270982        89.0079 
 147   0.0000       3.279424        89.2377 
 148   0.0000       3.315981        90.2324 
 149   0.0000       3.341465        90.9259 
 150   0.0000       3.373586        91.7999 
 151   0.0000       3.399752        92.5120 
 152   0.0000       3.422840        93.1402 
 153   0.0000       3.445091        93.7457 
 154   0.0000       3.482557        94.7652 
 155   0.0000       3.504788        95.3701 
 156   0.0000       3.517537        95.7171 
 157   0.0000       3.550714        96.6198 
 158   0.0000       3.610895        98.2574 
 159   0.0000       3.647972        99.2664 
 160   0.0000       3.692986       100.4913 
 161   0.0000       3.698965       100.6539 
 162   0.0000       3.718870       101.1956 
 163   0.0000       3.787691       103.0683 
 164   0.0000       3.794074       103.2420 
 165   0.0000       3.839625       104.4815 
 166   0.0000       3.858025       104.9822 
 167   0.0000       3.880545       105.5950 
 168   0.0000       3.901862       106.1751 
 169   0.0000       3.923352       106.7598 
 170   0.0000       3.940678       107.2313 
 171   0.0000       4.003427       108.9388 
 172   0.0000       4.068051       110.6973 
 173   0.0000       4.073744       110.8522 
 174   0.0000       4.104744       111.6958 
 175   0.0000       4.122977       112.1919 
 176   0.0000       4.157211       113.1235 
 177   0.0000       4.223685       114.9323 
 178   0.0000       4.268660       116.1561 
 179   0.0000       4.282682       116.5377 
 180   0.0000       4.344591       118.2223 
 181   0.0000       4.366263       118.8121 
 182   0.0000       4.382880       119.2642 
 183   0.0000       4.440368       120.8286 
 184   0.0000       4.472356       121.6990 
 185   0.0000       4.538760       123.5059 
 186   0.0000       4.597948       125.1165 
 187   0.0000       4.636120       126.1552 
 188   0.0000       4.651060       126.5618 
 189   0.0000       4.734896       128.8431 
 190   0.0000       4.790515       130.3565 
 191   0.0000       4.856108       132.1414 
 192   0.0000       4.891717       133.1104 
 193   0.0000       4.940372       134.4344 
 194   0.0000       4.988079       135.7325 
 195   0.0000       5.015218       136.4710 
 196   0.0000       5.059991       137.6894 
 197   0.0000       5.213082       141.8552 
 198   0.0000       5.246271       142.7583 
 199   0.0000       5.485632       149.2716 
 200   0.0000       5.555696       151.1782 
 201   0.0000       5.658442       153.9740 
 202   0.0000       5.803483       157.9208 
 203   0.0000       5.991459       163.0359 
 204   0.0000       6.002184       163.3277 
 205   0.0000       6.228325       169.4813 
 206   0.0000       9.407890       256.0017 
 207   0.0000      11.175197       304.0926 
 208   0.0000      12.964717       352.7879 
 209   0.0000      13.944568       379.4510 

                    ********************************
                    * MULLIKEN POPULATION ANALYSIS *
                    ********************************

-----------------------
MULLIKEN ATOMIC CHARGES
-----------------------
   0 C :   -0.122231
   1 C :   -0.203211
   2 S :    0.119433
   3 C :   -0.190174
   4 C :   -0.121128
   5 H :    0.110387
   6 H :    0.160042
   7 H :    0.133077
   8 H :    0.113806
Sum of atomic charges:   -0.0000000

--------------------------------
MULLIKEN REDUCED ORBITAL CHARGES
--------------------------------
  0 C s       :     3.229331  s :     3.229331
      pz      :     0.969386  p :     2.788198
      px      :     0.923865
      py      :     0.894946
      dz2     :     0.020876  d :     0.095059
      dxz     :     0.018295
      dyz     :     0.007721
      dx2y2   :     0.015415
      dxy     :     0.032752
      f0      :     0.000895  f :     0.009645
      f+1     :     0.001123
      f-1     :     0.001416
      f+2     :     0.001382
      f-2     :     0.001555
      f+3     :     0.001697
      f-3     :     0.001578
  1 C s       :     3.220452  s :     3.220452
      pz      :     0.965834  p :     2.869496
      px      :     0.878870
      py      :     1.024792
      dz2     :     0.015320  d :     0.103828
      dxz     :     0.029349
      dyz     :     0.011214
      dx2y2   :     0.017722
      dxy     :     0.030223
      f0      :     0.000509  f :     0.009434
      f+1     :     0.001532
      f-1     :     0.001342
      f+2     :     0.001696
      f-2     :     0.001334
      f+3     :     0.001814
      f-3     :     0.001206
  2 S s       :     5.745705  s :     5.745705
      pz      :     3.203535  p :     9.892531
      px      :     3.389404
      py      :     3.299592
      dz2     :     0.055203  d :     0.218826
      dxz     :     0.048211
      dyz     :     0.030540
      dx2y2   :     0.036256
      dxy     :     0.048616
      f0      :     0.001872  f :     0.023505
      f+1     :     0.005113
      f-1     :     0.001932
      f+2     :     0.003288
      f-2     :     0.003987
      f+3     :     0.003765
      f-3     :     0.003547
  3 C s       :     3.224834  s :     3.224834
      pz      :     1.018368  p :     2.859695
      px      :     0.873778
      py      :     0.967550
      dz2     :     0.014660  d :     0.097009
      dxz     :     0.026033
      dyz     :     0.010762
      dx2y2   :     0.017477
      dxy     :     0.028076
      f0      :     0.000585  f :     0.008635
      f+1     :     0.001571
      f-1     :     0.000844
      f+2     :     0.001840
      f-2     :     0.001379
      f+3     :     0.001303
      f-3     :     0.001113
  4 C s       :     3.238256  s :     3.238256
      pz      :     0.937065  p :     2.780799
      px      :     0.921698
      py      :     0.922037
      dz2     :     0.021047  d :     0.092708
      dxz     :     0.018678
      dyz     :     0.007965
      dx2y2   :     0.015553
      dxy     :     0.029464
      f0      :     0.000794  f :     0.009365
      f+1     :     0.001309
      f-1     :     0.001333
      f+2     :     0.001409
      f-2     :     0.001583
      f+3     :     0.001479
      f-3     :     0.001458
  5 H s       :     0.857496  s :     0.857496
      pz      :     0.011117  p :     0.029866
      px      :     0.008756
      py      :     0.009992
      dz2     :     0.000229  d :     0.002251
      dxz     :     0.000450
      dyz     :     0.000316
      dx2y2   :     0.000774
      dxy     :     0.000482
  6 H s       :     0.805868  s :     0.805868
      pz      :     0.009715  p :     0.031743
      px      :     0.008548
      py      :     0.013480
      dz2     :     0.000637  d :     0.002348
      dxz     :     0.000598
      dyz     :     0.000365
      dx2y2   :     0.000310
      dxy     :     0.000438
  7 H s       :     0.830573  s :     0.830573
      pz      :     0.012443  p :     0.034078
      px      :     0.008085
      py      :     0.013550
      dz2     :     0.000504  d :     0.002272
      dxz     :     0.000353
      dyz     :     0.000448
      dx2y2   :     0.000465
      dxy     :     0.000502
  8 H s       :     0.853874  s :     0.853874
      pz      :     0.010922  p :     0.030099
      px      :     0.008744
      py      :     0.010433
      dz2     :     0.000227  d :     0.002221
      dxz     :     0.000409
      dyz     :     0.000328
      dx2y2   :     0.000795
      dxy     :     0.000463


                     *******************************
                     * LOEWDIN POPULATION ANALYSIS *
                     *******************************

----------------------
LOEWDIN ATOMIC CHARGES
----------------------
   0 C :   -0.061366
   1 C :   -0.243200
   2 S :    0.650279
   3 C :   -0.223018
   4 C :   -0.049704
   5 H :   -0.006120
   6 H :   -0.034060
   7 H :   -0.021140
   8 H :   -0.011672

-------------------------------
LOEWDIN REDUCED ORBITAL CHARGES
-------------------------------
  0 C s       :     2.707402  s :     2.707402
      pz      :     0.916575  p :     2.852614
      px      :     1.001331
      py      :     0.934708
      dz2     :     0.076136  d :     0.447995
      dxz     :     0.086415
      dyz     :     0.054726
      dx2y2   :     0.102304
      dxy     :     0.128413
      f0      :     0.005311  f :     0.053356
      f+1     :     0.006932
      f-1     :     0.004566
      f+2     :     0.006946
      f-2     :     0.008475
      f+3     :     0.011567
      f-3     :     0.009559
  1 C s       :     2.737639  s :     2.737639
      pz      :     0.959317  p :     2.973853
      px      :     1.052872
      py      :     0.961664
      dz2     :     0.061322  d :     0.479314
      dxz     :     0.131425
      dyz     :     0.054556
      dx2y2   :     0.097842
      dxy     :     0.134169
      f0      :     0.004042  f :     0.052394
      f+1     :     0.010549
      f-1     :     0.004096
      f+2     :     0.005980
      f-2     :     0.008017
      f+3     :     0.011452
      f-3     :     0.008258
  2 S s       :     5.226983  s :     5.226983
      pz      :     3.122706  p :     9.633582
      px      :     3.317024
      py      :     3.193852
      dz2     :     0.103898  d :     0.416519
      dxz     :     0.080896
      dyz     :     0.065976
      dx2y2   :     0.078085
      dxy     :     0.087665
      f0      :     0.005282  f :     0.072637
      f+1     :     0.016292
      f-1     :     0.004722
      f+2     :     0.010231
      f-2     :     0.011670
      f+3     :     0.012680
      f-3     :     0.011759
  3 C s       :     2.765128  s :     2.765128
      pz      :     0.978168  p :     2.974036
      px      :     1.036384
      py      :     0.959484
      dz2     :     0.046398  d :     0.436660
      dxz     :     0.120930
      dyz     :     0.050939
      dx2y2   :     0.097798
      dxy     :     0.120596
      f0      :     0.004211  f :     0.047194
      f+1     :     0.011309
      f-1     :     0.002065
      f+2     :     0.007201
      f-2     :     0.007807
      f+3     :     0.007781
      f-3     :     0.006822
  4 C s       :     2.715265  s :     2.715265
      pz      :     0.918090  p :     2.846771
      px      :     0.994739
      py      :     0.933942
      dz2     :     0.082222  d :     0.437369
      dxz     :     0.087489
      dyz     :     0.054265
      dx2y2   :     0.092105
      dxy     :     0.121289
      f0      :     0.004643  f :     0.050298
      f+1     :     0.007254
      f-1     :     0.004586
      f+2     :     0.007083
      f-2     :     0.008377
      f+3     :     0.009840
      f-3     :     0.008515
  5 H s       :     0.836922  s :     0.836922
      pz      :     0.040118  p :     0.144728
      px      :     0.056588
      py      :     0.048022
      dz2     :     0.002832  d :     0.024471
      dxz     :     0.004759
      dyz     :     0.002948
      dx2y2   :     0.006868
      dxy     :     0.007064
  6 H s       :     0.836746  s :     0.836746
      pz      :     0.068253  p :     0.167380
      px      :     0.037474
      py      :     0.061652
      dz2     :     0.009003  d :     0.029934
      dxz     :     0.005552
      dyz     :     0.008081
      dx2y2   :     0.003600
      dxy     :     0.003698
  7 H s       :     0.840034  s :     0.840034
      pz      :     0.051858  p :     0.155115
      px      :     0.032630
      py      :     0.070628
      dz2     :     0.005328  d :     0.025991
      dxz     :     0.002743
      dyz     :     0.007260
      dx2y2   :     0.005779
      dxy     :     0.004881
  8 H s       :     0.839589  s :     0.839589
      pz      :     0.039489  p :     0.147180
      px      :     0.057579
      py      :     0.050112
      dz2     :     0.002822  d :     0.024903
      dxz     :     0.004635
      dyz     :     0.003220
      dx2y2   :     0.007167
      dxy     :     0.007060


                      *****************************
                      * MAYER POPULATION ANALYSIS *
                      *****************************

  NA   - Mulliken gross atomic population
  ZA   - Total nuclear charge
  QA   - Mulliken gross atomic charge
  VA   - Mayer's total valence
  BVA  - Mayer's bonded valence
  FA   - Mayer's free valence

  ATOM       NA         ZA         QA         VA         BVA        FA
  0 C      6.1222     6.0000    -0.1222     3.8690     3.8690     0.0000
  1 C      6.2032     6.0000    -0.2032     3.8920     3.8920     0.0000
  2 S     15.8806    16.0000     0.1194     2.7993     2.7993    -0.0000
  3 C      6.1902     6.0000    -0.1902     3.8888     3.8888     0.0000
  4 C      6.1211     6.0000    -0.1211     3.8682     3.8682     0.0000
  5 H      0.8896     1.0000     0.1104     0.9956     0.9956    -0.0000
  6 H      0.8400     1.0000     0.1600     0.9855     0.9855     0.0000
  7 H      0.8669     1.0000     0.1331     0.9970     0.9970     0.0000
  8 H      0.8862     1.0000     0.1138     0.9951     0.9951    -0.0000

  Mayer bond orders larger than 0.1
B(  0-C ,  1-C ) :   1.5399 B(  0-C ,  4-C ) :   1.2527 B(  0-C ,  5-H ) :   0.9540 
B(  1-C ,  2-S ) :   1.2885 B(  1-C ,  6-H ) :   0.9458 B(  2-S ,  3-C ) :   1.2632 
B(  3-C ,  4-C ) :   1.5479 B(  3-C ,  7-H ) :   0.9551 B(  4-C ,  8-H ) :   0.9568 


-------
TIMINGS
-------

Total SCF time: 0 days 0 hours 0 min 7 sec 

Total time                  ....       7.146 sec
Sum of individual times     ....       7.048 sec  ( 98.6%)

Fock matrix formation       ....       6.235 sec  ( 87.3%)
  XC integration            ....       1.430 sec  ( 22.9% of F)
    Basis function eval.    ....       0.318 sec  ( 22.3% of XC)
    Density eval.           ....       0.243 sec  ( 17.0% of XC)
    XC-Functional eval.     ....       0.035 sec  (  2.5% of XC)
    XC-Potential eval.      ....       0.732 sec  ( 51.2% of XC)
Diagonalization             ....       0.068 sec  (  1.0%)
Density matrix formation    ....       0.020 sec  (  0.3%)
Population analysis         ....       0.015 sec  (  0.2%)
Initial guess               ....       0.170 sec  (  2.4%)
Orbital Transformation      ....       0.000 sec  (  0.0%)
Orbital Orthonormalization  ....       0.000 sec  (  0.0%)
DIIS solution               ....       0.025 sec  (  0.4%)
SOSCF solution              ....       0.062 sec  (  0.9%)
Grid generation             ....       0.453 sec  (  6.3%)

-------------------------   --------------------
FINAL SINGLE POINT ENERGY      -552.175686769244
-------------------------   --------------------



           ************************************************************
           *        Program running with 4 parallel MPI-processes     *
           *              working on a common directory               *
           ************************************************************
------------------------------------------------------------------------------
                         ORCA SCF GRADIENT CALCULATION
------------------------------------------------------------------------------

Gradient of the Kohn-Sham DFT energy:
Kohn-Sham wavefunction type      ... RKS
Hartree-Fock exchange scaling    ...    0.250
Number of operators              ...    1
Number of atoms                  ...    9
Basis set dimensions             ...  210
Integral neglect threshold       ... 2.5e-11
Integral primitive cutoff        ... 2.5e-12

Nuclear repulsion gradient       ... done
One Electron Gradient            ... done
Pre-screening matrix             ... done
RI-JK gradient (InCore)          ... done
Exchange-correlation gradient    ... done

------------------
CARTESIAN GRADIENT
------------------

   1   C   :   -0.076817063   -0.007575286   -0.004468949
   2   C   :    0.020543698   -0.013209579    0.024083569
   3   S   :    0.048573134    0.007411800   -0.018311446
   4   C   :    0.006620953    0.034874990    0.010638472
   5   C   :   -0.037812397    0.009184348   -0.020358114
   6   H   :    0.013364157    0.028878374   -0.000431407
   7   H   :    0.010071496   -0.005504325   -0.009107257
   8   H   :    0.006242157   -0.026171425    0.013420717
   9   H   :    0.009213864   -0.027888896    0.004534415

Difference to translation invariance:
           :   -0.0000000000   -0.0000000001   -0.0000000000

Norm of the cartesian gradient     ...    0.1273613737
RMS gradient                       ...    0.0245107078
MAX gradient                       ...    0.0768170628

-------
TIMINGS
-------

Total SCF gradient time            ...        1.854 sec

One electron gradient       ....       0.050 sec  (  2.7%)
Prescreening matrices       ....       0.235 sec  ( 12.6%)
RI-JK gradient              ....       0.556 sec  ( 30.0%)
XC gradient                 ....       0.716 sec  ( 38.6%)
------------------------------------------------------------------------------
                         ORCA GEOMETRY RELAXATION STEP
------------------------------------------------------------------------------

Reading the OPT-File                    .... done
Getting information on internals        .... done
Copying old internal coords+grads       .... done
Making the new internal coordinates     .... (new redundants).... done
Validating the new internal coordinates .... (new redundants).... done
Calculating the B-matrix                .... done
Calculating the G,G- and P matrices     .... done
Transforming gradient to internals      .... done
Projecting the internal gradient        .... done
Number of atoms                         ....   9
Number of internal coordinates          ....  38
Current Energy                          ....  -552.175686769 Eh
Current gradient norm                   ....     0.127361374 Eh/bohr
Maximum allowed component of the step   ....  0.300
Current trust radius                    ....  0.300
Evaluating the initial hessian          ....  (Almloef) done
Projecting the Hessian                  .... done
Forming the augmented Hessian           .... done
Diagonalizing the augmented Hessian     .... done
Last element of RFO vector              ....  0.894052826
Lowest eigenvalues of augmented Hessian:
 -0.031688611  0.021070191  0.028336999  0.032171691  0.036263166
Length of the computed step             ....  0.501045946
Warning: the length of the step is outside the trust region - taking restricted step instead
The input lambda is                     ....    -0.031689
   iter:   1  x=   -0.055356  g=    6.804657 f(x)=     0.161047
   iter:   2  x=   -0.076643  g=    2.731408 f(x)=     0.058145
   iter:   3  x=   -0.086929  g=    1.479259 f(x)=     0.015216
   iter:   4  x=   -0.088473  g=    1.152564 f(x)=     0.001779
   iter:   5  x=   -0.088501  g=    1.112575 f(x)=     0.000031
   iter:   6  x=   -0.088501  g=    1.111868 f(x)=     0.000000
   iter:   7  x=   -0.088501  g=    1.111868 f(x)=     0.000000
The output lambda is                    ....    -0.088501 (7 iterations)
The final length of the internal step   ....  0.300000000
Converting the step to cartesian space:
 Initial RMS(Int)=    0.0486664263
Transforming coordinates:
 Iter   0:  RMS(Cart)=    0.0580248931 RMS(Int)=    0.0489564644
 Iter   1:  RMS(Cart)=    0.0018638512 RMS(Int)=    0.0013213970
 Iter   2:  RMS(Cart)=    0.0000794178 RMS(Int)=    0.0000650817
 Iter   3:  RMS(Cart)=    0.0000045215 RMS(Int)=    0.0000039147
 Iter   4:  RMS(Cart)=    0.0000001799 RMS(Int)=    0.0000001694
 Iter   5:  RMS(Cart)=    0.0000000109 RMS(Int)=    0.0000000108
done
Storing new coordinates                 .... done

                                .--------------------.
          ----------------------|Geometry convergence|-------------------------
          Item                value                   Tolerance       Converged
          ---------------------------------------------------------------------
          RMS gradient        0.0166449382            0.0001000000      NO
          MAX gradient        0.0596698894            0.0003000000      NO
          RMS step            0.0486664263            0.0020000000      NO
          MAX step            0.1060979280            0.0040000000      NO
          ........................................................
          Max(Bonds)      0.0367      Max(Angles)    3.03
          Max(Dihed)        6.08      Max(Improp)    0.00
          ---------------------------------------------------------------------

The optimization has not yet converged - more geometry cycles are needed


    ---------------------------------------------------------------------------
                         Redundant Internal Coordinates
                            (Angstroem and degrees)

        Definition                    Value    dE/dq     Step     New-Value
    ----------------------------------------------------------------------------
     1. B(C   1,C   0)                1.3193 -0.059670  0.0367    1.3560   
     2. B(S   2,C   1)                1.6247 -0.028132  0.0189    1.6436   
     3. B(C   3,S   2)                1.6637 -0.007586  0.0037    1.6674   
     4. B(C   4,C   3)                1.3522 -0.025960  0.0163    1.3686   
     5. B(C   4,C   0)                1.4172  0.007148 -0.0047    1.4125   
     6. B(H   5,C   0)                1.1289  0.027509 -0.0363    1.0926   
     7. B(H   6,C   1)                1.0812  0.002131 -0.0024    1.0788   
     8. B(H   7,C   3)                1.1223  0.027735 -0.0359    1.0863   
     9. B(H   8,C   4)                1.1238  0.025363 -0.0330    1.0908   
    10. A(C   1,C   0,C   4)          112.49  0.010167   -0.66    111.83   
    11. A(C   1,C   0,H   5)          118.72 -0.012961    1.37    120.09   
    12. A(C   4,C   0,H   5)          127.98  0.003376   -0.88    127.11   
    13. A(S   2,C   1,H   6)          127.28  0.014703   -1.87    125.41   
    14. A(C   0,C   1,S   2)          110.24 -0.008985    1.43    111.67   
    15. A(C   0,C   1,H   6)          121.75 -0.006949    0.86    122.61   
    16. A(C   1,S   2,C   3)           96.07  0.016975   -1.86     94.21   
    17. A(S   2,C   3,H   7)          127.61  0.020617   -1.68    125.93   
    18. A(S   2,C   3,C   4)          107.32 -0.025041    3.03    110.35   
    19. A(C   4,C   3,H   7)          120.58 -0.001721    1.31    121.89   
    20. A(C   3,C   4,H   8)          117.52 -0.012787    1.60    119.12   
    21. A(C   0,C   4,H   8)          130.30  0.009918   -1.44    128.86   
    22. A(C   0,C   4,C   3)          112.00  0.003268   -0.31    111.70   
    23. D(S   2,C   1,C   0,C   4)      5.20  0.002862   -1.68      3.52   
    24. D(H   6,C   1,C   0,H   5)     23.79  0.005148   -3.05     20.74   
    25. D(H   6,C   1,C   0,C   4)   -165.67  0.009015   -4.09   -169.76   
    26. D(S   2,C   1,C   0,H   5)   -165.34 -0.001005   -0.64   -165.98   
    27. D(C   3,S   2,C   1,H   6)    173.05 -0.004453    1.12    174.16   
    28. D(C   3,S   2,C   1,C   0)      2.81  0.004800   -1.80      1.01   
    29. D(C   4,C   3,S   2,C   1)    -10.10 -0.010635    4.69     -5.41   
    30. D(H   7,C   3,S   2,C   1)   -166.03  0.007634   -2.63   -168.66   
    31. D(C   0,C   4,C   3,H   7)    172.33  0.001426   -0.28    172.05   
    32. D(C   0,C   4,C   3,S   2)     14.37  0.011145   -6.08      8.29   
    33. D(H   8,C   4,C   0,H   5)    -28.72 -0.006721    2.81    -25.91   
    34. D(H   8,C   4,C   0,C   1)    161.81 -0.009226    3.71    165.52   
    35. D(C   3,C   4,C   0,H   5)    156.29 -0.011718    4.81    161.10   
    36. D(H   8,C   4,C   3,S   2)   -161.33  0.005716   -4.21   -165.53   
    37. D(C   3,C   4,C   0,C   1)    -13.18 -0.014224    5.71     -7.47   
    38. D(H   8,C   4,C   3,H   7)     -3.37 -0.004002    1.59     -1.78   
    ----------------------------------------------------------------------------

         *************************************************************
         *                GEOMETRY OPTIMIZATION CYCLE   2            *
         *************************************************************
---------------------------------
CARTESIAN COORDINATES (ANGSTROEM)
---------------------------------
  C     11.733742   10.844937    9.859010
  C     10.474270   11.203195    9.507026
  S      9.345915   10.346266   10.340213
  C     10.471331    9.488576   11.222521
  C     11.735501    9.779969   10.786673
  H     12.582495   11.469538    9.570444
  H     10.268689   11.882823    8.694894
  H     10.265086    8.619413   11.840665
  H     12.563271    9.137683   11.090255

----------------------------
CARTESIAN COORDINATES (A.U.)
----------------------------
  NO LB      ZA    FRAG     MASS         X           Y           Z
   0 C     6.0000    0    12.011   22.173560   20.493962   18.630829
   1 C     6.0000    0    12.011   19.793502   21.170970   17.965675
   2 S    16.0000    0    32.060   17.661220   19.551609   19.540170
   3 C     6.0000    0    12.011   19.787948   17.930810   21.207491
   4 C     6.0000    0    12.011   22.176883   18.481463   20.383857
   5 H     1.0000    0     1.008   23.777469   21.674285   18.085519
   6 H     1.0000    0     1.008   19.405009   22.455281   16.430968
   7 H     1.0000    0     1.008   19.398200   16.288329   22.375614
   8 H     1.0000    0     1.008   23.741142   17.267719   20.957544

--------------------------------
INTERNAL COORDINATES (ANGSTROEM)
--------------------------------
 C      0   0   0     0.000000000000     0.00000000     0.00000000
 C      1   0   0     1.355917347492     0.00000000     0.00000000
 S      2   1   0     1.643688965160   111.61161233     0.00000000
 C      3   2   1     1.667531399748    94.18950410     1.07610587
 C      4   3   2     1.368575411592   110.20589993   354.58665347
 H      1   2   3     1.092600577854   120.12974761   193.97191540
 H      2   1   3     1.078756753381   122.60936310   186.74246272
 H      4   3   2     1.086316882095   125.76576889   191.42726999
 H      5   4   3     1.090823416015   119.14091447   194.36090722

---------------------------
INTERNAL COORDINATES (A.U.)
---------------------------
 C      0   0   0     0.000000000000     0.00000000     0.00000000
 C      1   0   0     2.562312446993     0.00000000     0.00000000
 S      2   1   0     3.106121993501   111.61161233     0.00000000
 C      3   2   1     3.151177665238    94.18950410     1.07610587
 C      4   3   2     2.586232721527   110.20589993   354.58665347
 H      1   2   3     2.064715865908   120.12974761   193.97191540
 H      2   1   3     2.038554829008   122.60936310   186.74246272
 H      4   3   2     2.052841401814   125.76576889   191.42726999
 H      5   4   3     2.061357516736   119.14091447   194.36090722



           ************************************************************
           *        Program running with 4 parallel MPI-processes     *
           *              working on a common directory               *
           ************************************************************
 One Electron integrals                  ... done
 Pre-screening matrix                    ... done


           ************************************************************
           *        Program running with 4 parallel MPI-processes     *
           *              working on a common directory               *
           ************************************************************

Diagonalization of the overlap matrix:
Smallest eigenvalue                        ... 1.999e-04
Time for diagonalization                   ...    0.006 sec
Threshold for overlap eigenvalues          ... 1.000e-08
Number of eigenvalues below threshold      ... 0
Time for construction of square roots      ...    0.002 sec
Total time needed                          ...    0.009 sec

-------------------
DFT GRID GENERATION
-------------------

General Integration Accuracy     IntAcc      ...  4.340
Radial Grid Type                 RadialGrid  ... Gauss-Chebyshev
Angular Grid (max. acc.)         AngularGrid ... Lebedev-110
Angular grid pruning method      GridPruning ... 3 (G Style)
Weight generation scheme         WeightScheme... Becke
Basis function cutoff            BFCut       ...    1.0000e-11
Integration weight cutoff        WCut        ...    1.0000e-14
Grids for H and He will be reduced by one unit

# of grid points (after initial pruning)     ...  11606 (   0.0 sec)
# of grid points (after weights+screening)   ...  11084 (   0.0 sec)
nearest neighbour list constructed           ...    0.0 sec
Grid point re-assignment to atoms done       ...    0.0 sec
Grid point division into batches done        ...    0.0 sec
Reduced shell lists constructed in    0.0 sec

Total number of grid points                  ...    11084
Total number of batches                      ...      178
Average number of points per batch           ...       62
Average number of grid points per atom       ...     1232
Average number of shells per batch           ...    66.87 (87.99%)
Average number of basis functions per batch  ...   183.65 (87.45%)
Average number of large shells per batch     ...    59.67 (89.24%)
Average number of large basis fcns per batch ...   163.98 (89.29%)
Average number of aux-shells per batch       ...    66.87 (68.94%)
Average number of aux functions per batch    ...   183.65 (63.11%)
Maximum spatial batch extension              ...  17.92, 15.45, 14.71 au
Average spatial batch extension              ...   0.78,  0.85,  0.87 au

Time for grid setup =    0.058 sec

--------------
SCF ITERATIONS
--------------
ITER       Energy         Delta-E        Max-DP      RMS-DP      [F,P]     Damp
  0   -552.1884935980   0.000000000000 0.00241414  0.00010607  0.0186471 0.7000
                      *** Initiating the SOSCF procedure ***
                      *** Re-Reading the Fockian *** 
                      *** Removing any level shift *** 
ITER      Energy       Delta-E        Grad      Rot      Max-DP    RMS-DP
  1   -552.19007817  -0.0015845694  0.002125  0.002125  0.007292  0.000330
  2   -552.19230472  -0.0022265514  0.002445  0.009963  0.005091  0.000130
  3   -552.19220229   0.0001024261  0.004589  0.006854  0.003111  0.000078
  4   -552.19246276  -0.0002604645  0.000422  0.001080  0.000739  0.000023
  5   -552.19246048   0.0000022771  0.000455  0.000527  0.000497  0.000013
  6   -552.19246817  -0.0000076949  0.000048  0.000112  0.000091  0.000003
  7   -552.19246820  -0.0000000204  0.000056  0.000088  0.000039  0.000002
  8   -552.19246828  -0.0000000888  0.000025  0.000077  0.000039  0.000001
  9   -552.19246828   0.0000000019  0.000025  0.000040  0.000029  0.000001
                  ***Gradient check signals convergence***
              ***Rediagonalizing the Fockian in SOSCF/NRSCF***

               *****************************************************
               *                     SUCCESS                       *
               *           SCF CONVERGED AFTER  10 CYCLES          *
               *****************************************************

Setting up the final grid:

General Integration Accuracy     IntAcc      ...  4.670
Radial Grid Type                 RadialGrid  ... Gauss-Chebyshev
Angular Grid (max. acc.)         AngularGrid ... Lebedev-302
Angular grid pruning method      GridPruning ... 3 (G Style)
Weight generation scheme         WeightScheme... Becke
Basis function cutoff            BFCut       ...    1.0000e-11
Integration weight cutoff        WCut        ...    1.0000e-14
Grids for H and He will be reduced by one unit

# of grid points (after initial pruning)     ...  45270 (   0.0 sec)
# of grid points (after weights+screening)   ...  42828 (   0.0 sec)
nearest neighbour list constructed           ...    0.0 sec
Grid point re-assignment to atoms done       ...    0.0 sec
Grid point division into batches done        ...    0.1 sec
Reduced shell lists constructed in    0.2 sec

Total number of grid points                  ...    42828
Total number of batches                      ...      674
Average number of points per batch           ...       63
Average number of grid points per atom       ...     4759
Average number of shells per batch           ...    64.72 (85.15%)
Average number of basis functions per batch  ...   177.34 (84.45%)
Average number of large shells per batch     ...    55.08 (85.11%)
Average number of large basis fcns per batch ...   151.33 (85.33%)
Maximum spatial batch extension              ...  15.33, 13.27, 12.59 au
Average spatial batch extension              ...   0.52,  0.52,  0.53 au

Final grid set up in    0.2 sec
Final integration                            ... done (   0.2 sec)
Change in XC energy                          ...     0.000321898
Integrated number of electrons               ...    44.000017616
Previous integrated no of electrons          ...    44.003988634
Total Energy       :         -552.19214639 Eh          -15025.91221 eV
  Last Energy change         ...   -9.5769e-09  Tolerance :   1.0000e-08
  Last MAX-Density change    ...    5.8946e-06  Tolerance :   1.0000e-07
             **** THE GBW FILE WAS UPDATED (system.gbw) ****
             **** DENSITY FILE WAS UPDATED (system.scfp.tmp) ****
             **** ENERGY FILE WAS UPDATED (system.en.tmp) ****
Total SCF time: 0 days 0 hours 0 min 5 sec 

-------------------------   --------------------
FINAL SINGLE POINT ENERGY      -552.192146394227
-------------------------   --------------------



           ************************************************************
           *        Program running with 4 parallel MPI-processes     *
           *              working on a common directory               *
           ************************************************************
------------------------------------------------------------------------------
                         ORCA SCF GRADIENT CALCULATION
------------------------------------------------------------------------------

Gradient of the Kohn-Sham DFT energy:
Kohn-Sham wavefunction type      ... RKS
Hartree-Fock exchange scaling    ...    0.250
Number of operators              ...    1
Number of atoms                  ...    9
Basis set dimensions             ...  210
Integral neglect threshold       ... 2.5e-11
Integral primitive cutoff        ... 2.5e-12

Nuclear repulsion gradient       ... done
One Electron Gradient            ... done
Pre-screening matrix             ... done
RI-JK gradient (InCore)          ... done
Exchange-correlation gradient    ... done

------------------
CARTESIAN GRADIENT
------------------

   1   C   :   -0.018564502   -0.006459786   -0.004098997
   2   C   :   -0.002628850   -0.003914163    0.010309743
   3   S   :    0.014631079    0.005553282   -0.009833476
   4   C   :   -0.004687021    0.013630161    0.014885630
   5   C   :   -0.002197792    0.003443931   -0.009865743
   6   H   :    0.000492977    0.014260955    0.005038532
   7   H   :    0.007254976   -0.005085852   -0.006299898
   8   H   :    0.007283717   -0.008077920    0.000731440
   9   H   :   -0.001584585   -0.013350607   -0.000867231

Difference to translation invariance:
           :   -0.0000000000   -0.0000000001   -0.0000000001

Norm of the cartesian gradient     ...    0.0454333536
RMS gradient                       ...    0.0087436530
MAX gradient                       ...    0.0185645018

-------
TIMINGS
-------

Total SCF gradient time            ...        1.753 sec

One electron gradient       ....       0.049 sec  (  2.8%)
Prescreening matrices       ....       0.233 sec  ( 13.3%)
RI-JK gradient              ....       0.532 sec  ( 30.4%)
XC gradient                 ....       0.740 sec  ( 42.2%)
------------------------------------------------------------------------------
                         ORCA GEOMETRY RELAXATION STEP
------------------------------------------------------------------------------

Reading the OPT-File                    .... done
Getting information on internals        .... done
Copying old internal coords+grads       .... done
Making the new internal coordinates     .... (new redundants).... done
Validating the new internal coordinates .... (new redundants).... done
Calculating the B-matrix                .... done
Calculating the G,G- and P matrices     .... done
Transforming gradient to internals      .... done
Projecting the internal gradient        .... done
Number of atoms                         ....   9
Number of internal coordinates          ....  38
Current Energy                          ....  -552.192146394 Eh
Current gradient norm                   ....     0.045433354 Eh/bohr
Maximum allowed component of the step   ....  0.300
Current trust radius                    ....  0.300
Updating the Hessian (BFGS)             .... done
Forming the augmented Hessian           .... done
Diagonalizing the augmented Hessian     .... done
Last element of RFO vector              ....  0.911785900
Lowest eigenvalues of augmented Hessian:
 -0.011683254  0.021392366  0.028722342  0.032179732  0.036250894
Length of the computed step             ....  0.450397281
Warning: the length of the step is outside the trust region - taking restricted step instead
The input lambda is                     ....    -0.011683
   iter:   1  x=   -0.024290  g=    8.952425 f(x)=     0.112858
   iter:   2  x=   -0.032839  g=    4.153174 f(x)=     0.035507
   iter:   3  x=   -0.035277  g=    2.731024 f(x)=     0.006658
   iter:   4  x=   -0.035420  g=    2.449974 f(x)=     0.000351
   iter:   5  x=   -0.035421  g=    2.434709 f(x)=     0.000001
   iter:   6  x=   -0.035421  g=    2.434661 f(x)=     0.000000
   iter:   7  x=   -0.035421  g=    2.434661 f(x)=     0.000000
The output lambda is                    ....    -0.035421 (7 iterations)
The final length of the internal step   ....  0.300000000
Converting the step to cartesian space:
 Initial RMS(Int)=    0.0486664263
Transforming coordinates:
 Iter   0:  RMS(Cart)=    0.0559433414 RMS(Int)=    0.0487363085
 Iter   1:  RMS(Cart)=    0.0017985957 RMS(Int)=    0.0013536882
 Iter   2:  RMS(Cart)=    0.0000845705 RMS(Int)=    0.0000794591
 Iter   3:  RMS(Cart)=    0.0000054662 RMS(Int)=    0.0000044130
 Iter   4:  RMS(Cart)=    0.0000003076 RMS(Int)=    0.0000003150
 Iter   5:  RMS(Cart)=    0.0000000198 RMS(Int)=    0.0000000171
done
Storing new coordinates                 .... done

                                .--------------------.
          ----------------------|Geometry convergence|-------------------------
          Item                value                   Tolerance       Converged
          ---------------------------------------------------------------------
          Energy change      -0.0164596250            0.0000050000      NO
          RMS gradient        0.0061492387            0.0001000000      NO
          MAX gradient        0.0157838964            0.0003000000      NO
          RMS step            0.0486664263            0.0020000000      NO
          MAX step            0.1022005235            0.0040000000      NO
          ........................................................
          Max(Bonds)      0.0156      Max(Angles)    2.27
          Max(Dihed)        5.86      Max(Improp)    0.00
          ---------------------------------------------------------------------

The optimization has not yet converged - more geometry cycles are needed


    ---------------------------------------------------------------------------
                         Redundant Internal Coordinates
                            (Angstroem and degrees)

        Definition                    Value    dE/dq     Step     New-Value
    ----------------------------------------------------------------------------
     1. B(C   1,C   0)                1.3559 -0.015784  0.0156    1.3715   
     2. B(S   2,C   1)                1.6437 -0.011044  0.0117    1.6554   
     3. B(C   3,S   2)                1.6675  0.001695 -0.0035    1.6640   
     4. B(C   4,C   3)                1.3686 -0.004760  0.0042    1.3727   
     5. B(C   4,C   0)                1.4123  0.001005 -0.0005    1.4118   
     6. B(H   5,C   0)                1.0926  0.007204 -0.0133    1.0793   
     7. B(H   6,C   1)                1.0788  0.000158 -0.0001    1.0786   
     8. B(H   7,C   3)                1.0863  0.005494 -0.0093    1.0771   
     9. B(H   8,C   4)                1.0908  0.006416 -0.0116    1.0792   
    10. A(C   1,C   0,C   4)          111.77  0.003539   -0.25    111.52   
    11. A(C   1,C   0,H   5)          120.13 -0.006655    1.22    121.35   
    12. A(C   4,C   0,H   5)          127.13  0.003219   -0.93    126.20   
    13. A(S   2,C   1,H   6)          125.40  0.008015   -1.66    123.74   
    14. A(C   0,C   1,S   2)          111.61 -0.001052    0.46    112.08   
    15. A(C   0,C   1,H   6)          122.61 -0.007365    1.45    124.06   
    16. A(C   1,S   2,C   3)           94.19  0.004095   -0.71     93.48   
    17. A(S   2,C   3,H   7)          125.77  0.010803   -1.40    124.37   
    18. A(S   2,C   3,C   4)          110.21 -0.007232    1.49    111.70   
    19. A(C   4,C   3,H   7)          121.80 -0.006044    2.27    124.07   
    20. A(C   3,C   4,H   8)          119.14 -0.007166    1.52    120.67   
    21. A(C   0,C   4,H   8)          128.88  0.007779   -1.65    127.23   
    22. A(C   0,C   4,C   3)          111.63 -0.000433    0.11    111.74   
    23. D(S   2,C   1,C   0,C   4)      3.47  0.003028   -2.93      0.54   
    24. D(H   6,C   1,C   0,H   5)     20.71  0.004927   -4.72     16.00   
    25. D(H   6,C   1,C   0,C   4)   -169.79  0.005933   -4.56   -174.35   
    26. D(S   2,C   1,C   0,H   5)   -166.03  0.002022   -3.09   -169.11   
    27. D(C   3,S   2,C   1,H   6)    174.11 -0.003093    2.14    176.25   
    28. D(C   3,S   2,C   1,C   0)      1.08  0.001182    0.08      1.15   
    29. D(C   4,C   3,S   2,C   1)     -5.41 -0.004953    2.79     -2.62   
    30. D(H   7,C   3,S   2,C   1)   -168.57  0.005673   -4.46   -173.04   
    31. D(C   0,C   4,C   3,H   7)    172.12  0.000113    1.01    173.13   
    32. D(C   0,C   4,C   3,S   2)      8.18  0.006899   -4.75      3.43   
    33. D(H   8,C   4,C   0,H   5)    -25.91 -0.006184    5.86    -20.06   
    34. D(H   8,C   4,C   0,C   1)    165.50 -0.006007    5.40    170.90   
    35. D(C   3,C   4,C   0,H   5)    161.03 -0.007364    5.70    166.73   
[...]
  71   0.0000       1.056636        28.7525 
  72   0.0000       1.059382        28.8273 
  73   0.0000       1.062761        28.9192 
  74   0.0000       1.112445        30.2712 
  75   0.0000       1.144358        31.1396 
  76   0.0000       1.200579        32.6694 
  77   0.0000       1.207616        32.8609 
  78   0.0000       1.236180        33.6382 
  79   0.0000       1.244110        33.8540 
  80   0.0000       1.273463        34.6527 
  81   0.0000       1.273704        34.6592 
  82   0.0000       1.306924        35.5632 
  83   0.0000       1.327210        36.1152 
  84   0.0000       1.337225        36.3878 
  85   0.0000       1.397591        38.0304 
  86   0.0000       1.414771        38.4979 
  87   0.0000       1.415356        38.5138 
  88   0.0000       1.473329        40.0913 
  89   0.0000       1.503701        40.9178 
  90   0.0000       1.561248        42.4837 
  91   0.0000       1.584170        43.1075 
  92   0.0000       1.591471        43.3061 
  93   0.0000       1.616341        43.9829 
  94   0.0000       1.632862        44.4324 
  95   0.0000       1.692188        46.0468 
  96   0.0000       1.764382        48.0113 
  97   0.0000       1.827260        49.7223 
  98   0.0000       1.855315        50.4857 
  99   0.0000       1.884091        51.2687 
 100   0.0000       1.949679        53.0535 
 101   0.0000       1.957852        53.2759 
 102   0.0000       1.965535        53.4849 
 103   0.0000       1.966771        53.5186 
 104   0.0000       1.986817        54.0640 
 105   0.0000       2.054459        55.9047 
 106   0.0000       2.117558        57.6217 
 107   0.0000       2.147412        58.4341 
 108   0.0000       2.210958        60.1632 
 109   0.0000       2.245066        61.0913 
 110   0.0000       2.263255        61.5863 
 111   0.0000       2.265149        61.6378 
 112   0.0000       2.297874        62.5283 
 113   0.0000       2.407158        65.5021 
 114   0.0000       2.441768        66.4439 
 115   0.0000       2.460836        66.9628 
 116   0.0000       2.461911        66.9920 
 117   0.0000       2.480964        67.5105 
 118   0.0000       2.559005        69.6341 
 119   0.0000       2.583456        70.2994 
 120   0.0000       2.645482        71.9872 
 121   0.0000       2.664103        72.4939 
 122   0.0000       2.683022        73.0087 
 123   0.0000       2.717510        73.9472 
 124   0.0000       2.749783        74.8254 
 125   0.0000       2.809523        76.4510 
 126   0.0000       2.817915        76.6794 
 127   0.0000       2.838760        77.2466 
 128   0.0000       2.878625        78.3314 
 129   0.0000       2.913433        79.2785 
 130   0.0000       2.948015        80.2196 
 131   0.0000       2.955967        80.4360 
 132   0.0000       2.967787        80.7576 
 133   0.0000       2.986386        81.2637 
 134   0.0000       3.004403        81.7540 
 135   0.0000       3.033085        82.5344 
 136   0.0000       3.040077        82.7247 
 137   0.0000       3.100221        84.3613 
 138   0.0000       3.116426        84.8023 
 139   0.0000       3.116778        84.8118 
 140   0.0000       3.146391        85.6177 
 141   0.0000       3.153068        85.7993 
 142   0.0000       3.175497        86.4097 
 143   0.0000       3.201193        87.1089 
 144   0.0000       3.230368        87.9028 
 145   0.0000       3.230917        87.9177 
 146   0.0000       3.261043        88.7375 
 147   0.0000       3.262575        88.7792 
 148   0.0000       3.339515        90.8728 
 149   0.0000       3.365345        91.5757 
 150   0.0000       3.375843        91.8613 
 151   0.0000       3.400636        92.5360 
 152   0.0000       3.444516        93.7300 
 153   0.0000       3.471533        94.4652 
 154   0.0000       3.483981        94.8040 
 155   0.0000       3.501947        95.2928 
 156   0.0000       3.567667        97.0812 
 157   0.0000       3.615266        98.3764 
 158   0.0000       3.633100        98.8617 
 159   0.0000       3.682001       100.1923 
 160   0.0000       3.685199       100.2794 
 161   0.0000       3.691746       100.4575 
 162   0.0000       3.746342       101.9432 
 163   0.0000       3.793891       103.2370 
 164   0.0000       3.798639       103.3662 
 165   0.0000       3.840110       104.4947 
 166   0.0000       3.849784       104.7580 
 167   0.0000       3.875889       105.4683 
 168   0.0000       3.935761       107.0975 
 169   0.0000       3.951629       107.5293 
 170   0.0000       3.960012       107.7574 
 171   0.0000       3.965375       107.9033 
 172   0.0000       4.052522       110.2747 
 173   0.0000       4.077569       110.9563 
 174   0.0000       4.099702       111.5586 
 175   0.0000       4.193784       114.1187 
 176   0.0000       4.212050       114.6157 
 177   0.0000       4.269411       116.1766 
 178   0.0000       4.291472       116.7769 
 179   0.0000       4.341748       118.1450 
 180   0.0000       4.349556       118.3574 
 181   0.0000       4.367333       118.8412 
 182   0.0000       4.389276       119.4383 
 183   0.0000       4.477333       121.8344 
 184   0.0000       4.517209       122.9195 
 185   0.0000       4.582628       124.6996 
 186   0.0000       4.586398       124.8022 
 187   0.0000       4.652608       126.6039 
 188   0.0000       4.694973       127.7567 
 189   0.0000       4.826304       131.3304 
 190   0.0000       4.839574       131.6915 
 191   0.0000       4.934119       134.2642 
 192   0.0000       4.985117       135.6519 
 193   0.0000       5.008561       136.2899 
 194   0.0000       5.033431       136.9666 
 195   0.0000       5.054822       137.5487 
 196   0.0000       5.149198       140.1168 
 197   0.0000       5.292573       144.0182 
 198   0.0000       5.349596       145.5699 
 199   0.0000       5.581932       151.8921 
 200   0.0000       5.634637       153.3263 
 201   0.0000       5.743228       156.2812 
 202   0.0000       5.836331       158.8147 
 203   0.0000       5.922485       161.1590 
 204   0.0000       6.195326       168.5834 
 205   0.0000       6.381134       173.6395 
 206   0.0000       9.642420       262.3836 
 207   0.0000      11.474562       312.2387 
 208   0.0000      12.903716       351.1280 
 209   0.0000      13.746189       374.0528 

                    ********************************
                    * MULLIKEN POPULATION ANALYSIS *
                    ********************************

-----------------------
MULLIKEN ATOMIC CHARGES
-----------------------
   0 C :   -0.128192
   1 C :   -0.204107
   2 S :    0.126027
   3 C :   -0.203768
   4 C :   -0.128170
   5 H :    0.119683
   6 H :    0.149566
   7 H :    0.149371
   8 H :    0.119591
Sum of atomic charges:   -0.0000000

--------------------------------
MULLIKEN REDUCED ORBITAL CHARGES
--------------------------------
  0 C s       :     3.243143  s :     3.243143
      pz      :     0.938978  p :     2.780547
      px      :     0.914433
      py      :     0.927136
      dz2     :     0.018953  d :     0.095226
      dxz     :     0.023965
      dyz     :     0.007685
      dx2y2   :     0.018346
      dxy     :     0.026278
      f0      :     0.000949  f :     0.009275
      f+1     :     0.000985
      f-1     :     0.001326
      f+2     :     0.001477
      f-2     :     0.001508
      f+3     :     0.001668
      f-3     :     0.001363
  1 C s       :     3.221277  s :     3.221277
      pz      :     1.013167  p :     2.874223
      px      :     0.865373
      py      :     0.995684
      dz2     :     0.011898  d :     0.099838
      dxz     :     0.029649
      dyz     :     0.010437
      dx2y2   :     0.018044
      dxy     :     0.029809
      f0      :     0.000678  f :     0.008770
      f+1     :     0.001353
      f-1     :     0.001040
      f+2     :     0.001595
      f-2     :     0.001285
      f+3     :     0.001627
      f-3     :     0.001192
  2 S s       :     5.762456  s :     5.762456
      pz      :     3.289053  p :     9.881136
      px      :     3.372119
      py      :     3.219964
      dz2     :     0.051669  d :     0.208471
      dxz     :     0.043144
      dyz     :     0.028317
      dx2y2   :     0.036911
      dxy     :     0.048430
      f0      :     0.001825  f :     0.021911
      f+1     :     0.004323
      f-1     :     0.001724
      f+2     :     0.002802
      f-2     :     0.003838
      f+3     :     0.003967
      f-3     :     0.003431
  3 C s       :     3.221016  s :     3.221016
      pz      :     1.012634  p :     2.874223
      px      :     0.865964
      py      :     0.995625
      dz2     :     0.011870  d :     0.099762
      dxz     :     0.029777
      dyz     :     0.010351
      dx2y2   :     0.017877
      dxy     :     0.029887
      f0      :     0.000685  f :     0.008767
      f+1     :     0.001342
      f-1     :     0.001041
      f+2     :     0.001602
      f-2     :     0.001280
      f+3     :     0.001620
      f-3     :     0.001196
  4 C s       :     3.243216  s :     3.243216
      pz      :     0.939205  p :     2.780500
      px      :     0.914112
      py      :     0.927183
      dz2     :     0.018772  d :     0.095181
      dxz     :     0.024167
      dyz     :     0.007667
      dx2y2   :     0.018238
      dxy     :     0.026337
      f0      :     0.000959  f :     0.009273
      f+1     :     0.000968
      f-1     :     0.001326
      f+2     :     0.001484
      f-2     :     0.001502
      f+3     :     0.001666
      f-3     :     0.001369
  5 H s       :     0.846411  s :     0.846411
      pz      :     0.011774  p :     0.031630
      px      :     0.008520
      py      :     0.011336
      dz2     :     0.000331  d :     0.002277
      dxz     :     0.000484
      dyz     :     0.000297
      dx2y2   :     0.000685
      dxy     :     0.000479
  6 H s       :     0.813829  s :     0.813829
      pz      :     0.013670  p :     0.034294
      px      :     0.008063
      py      :     0.012561
      dz2     :     0.000601  d :     0.002312
      dxz     :     0.000392
      dyz     :     0.000398
      dx2y2   :     0.000458
      dxy     :     0.000464
  7 H s       :     0.813995  s :     0.813995
      pz      :     0.013703  p :     0.034321
      px      :     0.008041
      py      :     0.012577
      dz2     :     0.000599  d :     0.002313
      dxz     :     0.000389
      dyz     :     0.000401
      dx2y2   :     0.000463
      dxy     :     0.000461
  8 H s       :     0.846491  s :     0.846491
      pz      :     0.011776  p :     0.031643
      px      :     0.008525
      py      :     0.011341
      dz2     :     0.000336  d :     0.002276
      dxz     :     0.000478
      dyz     :     0.000300
      dx2y2   :     0.000687
      dxy     :     0.000475


                     *******************************
                     * LOEWDIN POPULATION ANALYSIS *
                     *******************************

----------------------
LOEWDIN ATOMIC CHARGES
----------------------
   0 C :   -0.029363
   1 C :   -0.213766
   2 S :    0.651266
   3 C :   -0.213786
   4 C :   -0.029316
   5 H :   -0.032158
   6 H :   -0.050355
   7 H :   -0.050365
   8 H :   -0.032158

-------------------------------
LOEWDIN REDUCED ORBITAL CHARGES
-------------------------------
  0 C s       :     2.706654  s :     2.706654
      pz      :     0.920921  p :     2.847885
      px      :     0.994494
      py      :     0.932470
      dz2     :     0.073063  d :     0.426450
      dxz     :     0.093789
      dyz     :     0.051912
      dx2y2   :     0.100741
      dxy     :     0.106947
      f0      :     0.005746  f :     0.048374
      f+1     :     0.006107
      f-1     :     0.004503
      f+2     :     0.005920
      f-2     :     0.008162
      f+3     :     0.010080
      f-3     :     0.007856
  1 C s       :     2.753424  s :     2.753424
      pz      :     0.969098  p :     2.969694
      px      :     1.028690
      py      :     0.971907
      dz2     :     0.046967  d :     0.445998
      dxz     :     0.122505
      dyz     :     0.051826
      dx2y2   :     0.095234
      dxy     :     0.129465
      f0      :     0.003915  f :     0.044650
      f+1     :     0.008505
      f-1     :     0.002514
      f+2     :     0.005546
      f-2     :     0.007076
      f+3     :     0.009831
      f-3     :     0.007263
  2 S s       :     5.252459  s :     5.252459
      pz      :     3.192815  p :     9.642543
      px      :     3.313107
      py      :     3.136621
      dz2     :     0.091640  d :     0.385947
      dxz     :     0.073050
      dyz     :     0.061284
      dx2y2   :     0.076284
      dxy     :     0.083690
      f0      :     0.004760  f :     0.067784
      f+1     :     0.013608
      f-1     :     0.003789
      f+2     :     0.009082
      f-2     :     0.011409
      f+3     :     0.013227
      f-3     :     0.011910
  3 C s       :     2.753424  s :     2.753424
      pz      :     0.968866  p :     2.969662
      px      :     1.028968
      py      :     0.971828
      dz2     :     0.047039  d :     0.446049
      dxz     :     0.122884
      dyz     :     0.051661
      dx2y2   :     0.094752
      dxy     :     0.129713
      f0      :     0.003970  f :     0.044651
      f+1     :     0.008429
      f-1     :     0.002536
      f+2     :     0.005591
      f-2     :     0.007036
      f+3     :     0.009793
      f-3     :     0.007296
  4 C s       :     2.706655  s :     2.706655
      pz      :     0.920805  p :     2.847897
      px      :     0.994625
      py      :     0.932468
      dz2     :     0.072514  d :     0.426389
      dxz     :     0.094258
      dyz     :     0.051835
      dx2y2   :     0.100667
      dxy     :     0.107116
      f0      :     0.005801  f :     0.048375
      f+1     :     0.006021
      f-1     :     0.004518
      f+2     :     0.005948
      f-2     :     0.008116
      f+3     :     0.010075
      f-3     :     0.007896
  5 H s       :     0.842528  s :     0.842528
      pz      :     0.047713  p :     0.160904
      px      :     0.064951
      py      :     0.048240
      dz2     :     0.004025  d :     0.028726
      dxz     :     0.007163
      dyz     :     0.002688
      dx2y2   :     0.007413
      dxy     :     0.007437
  6 H s       :     0.848406  s :     0.848406
      pz      :     0.064962  p :     0.171874
      px      :     0.038691
      py      :     0.068221
      dz2     :     0.007259  d :     0.030076
      dxz     :     0.004201
      dyz     :     0.008008
      dx2y2   :     0.005524
      dxy     :     0.005083
  7 H s       :     0.848422  s :     0.848422
      pz      :     0.064859  p :     0.171869
      px      :     0.038812
      py      :     0.068197
      dz2     :     0.007234  d :     0.030074
      dxz     :     0.004209
      dyz     :     0.007986
      dx2y2   :     0.005547
      dxy     :     0.005099
  8 H s       :     0.842525  s :     0.842525
      pz      :     0.047873  p :     0.160906
      px      :     0.064738
      py      :     0.048294
      dz2     :     0.004060  d :     0.028727
      dxz     :     0.007147
      dyz     :     0.002729
      dx2y2   :     0.007385
      dxy     :     0.007406


                      *****************************
                      * MAYER POPULATION ANALYSIS *
                      *****************************

  NA   - Mulliken gross atomic population
  ZA   - Total nuclear charge
  QA   - Mulliken gross atomic charge
  VA   - Mayer's total valence
  BVA  - Mayer's bonded valence
  FA   - Mayer's free valence

  ATOM       NA         ZA         QA         VA         BVA        FA
  0 C      6.1282     6.0000    -0.1282     3.8736     3.8736    -0.0000
  1 C      6.2041     6.0000    -0.2041     3.8831     3.8831    -0.0000
  2 S     15.8740    16.0000     0.1260     2.7929     2.7929    -0.0000
  3 C      6.2038     6.0000    -0.2038     3.8832     3.8832    -0.0000
  4 C      6.1282     6.0000    -0.1282     3.8740     3.8740     0.0000
  5 H      0.8803     1.0000     0.1197     0.9976     0.9976    -0.0000
  6 H      0.8504     1.0000     0.1496     0.9924     0.9924    -0.0000
  7 H      0.8506     1.0000     0.1494     0.9924     0.9924    -0.0000
  8 H      0.8804     1.0000     0.1196     0.9976     0.9976     0.0000

  Mayer bond orders larger than 0.1
B(  0-C ,  1-C ) :   1.5278 B(  0-C ,  4-C ) :   1.2639 B(  0-C ,  5-H ) :   0.9639 
B(  1-C ,  2-S ) :   1.2763 B(  1-C ,  6-H ) :   0.9536 B(  2-S ,  3-C ) :   1.2763 
B(  3-C ,  4-C ) :   1.5280 B(  3-C ,  7-H ) :   0.9536 B(  4-C ,  8-H ) :   0.9640 


-------
TIMINGS
-------

Total SCF time: 0 days 0 hours 0 min 6 sec 

Total time                  ....       6.319 sec
Sum of individual times     ....       6.250 sec  ( 98.9%)

Fock matrix formation       ....       5.630 sec  ( 89.1%)
  XC integration            ....       1.335 sec  ( 23.7% of F)
    Basis function eval.    ....       0.303 sec  ( 22.7% of XC)
    Density eval.           ....       0.223 sec  ( 16.7% of XC)
    XC-Functional eval.     ....       0.032 sec  (  2.4% of XC)
    XC-Potential eval.      ....       0.634 sec  ( 47.5% of XC)
Diagonalization             ....       0.017 sec  (  0.3%)
Density matrix formation    ....       0.012 sec  (  0.2%)
Population analysis         ....       0.026 sec  (  0.4%)
Initial guess               ....       0.012 sec  (  0.2%)
Orbital Transformation      ....       0.000 sec  (  0.0%)
Orbital Orthonormalization  ....       0.009 sec  (  0.1%)
DIIS solution               ....       0.003 sec  (  0.1%)
SOSCF solution              ....       0.079 sec  (  1.3%)
Grid generation             ....       0.470 sec  (  7.4%)

-------------------------   --------------------
FINAL SINGLE POINT ENERGY      -552.202700043070
-------------------------   --------------------

                                *** OPTIMIZATION RUN DONE ***

                            ***************************************
                            *     ORCA property calculations      *
                            ***************************************

                                    ---------------------
                                    Active property flags
                                    ---------------------
   (+) Dipole Moment


------------------------------------------------------------------------------
                       ORCA ELECTRIC PROPERTIES CALCULATION
------------------------------------------------------------------------------

Dipole Moment Calculation                       ... on
Quadrupole Moment Calculation                   ... off
Polarizability Calculation                      ... off
GBWName                                         ... system.gbw
Electron density file                           ... system.scfp.tmp
The origin for moment calculation is the CENTER OF MASS  = (19.750561, 19.480156 19.505000)

-------------
DIPOLE MOMENT
-------------
                                X             Y             Z
Electronic contribution:     -3.47727       0.00234      -0.01120
Nuclear contribution   :      3.63917      -0.00258       0.01150
                        -----------------------------------------
Total Dipole Moment    :      0.16189      -0.00023       0.00030
                        -----------------------------------------
Magnitude (a.u.)       :      0.16189
Magnitude (Debye)      :      0.41150


Timings for individual modules:

Sum of individual times         ...       80.762 sec (=   1.346 min)
GTO integral calculation        ...        4.983 sec (=   0.083 min)   6.2 %
SCF iterations                  ...       53.765 sec (=   0.896 min)  66.6 %
SCF Gradient evaluation         ...       21.478 sec (=   0.358 min)  26.6 %
Geometry relaxation             ...        0.536 sec (=   0.009 min)   0.7 %
                             ****ORCA TERMINATED NORMALLY****
TOTAL RUN TIME: 0 days 0 hours 1 minutes 21 seconds 565 msec
