ITEM: TIMESTEP
0
ITEM: NUMBER OF ATOMS
2180
ITEM: BOX BOUNDS pp pp pp
0 4.031
0 4.031
0 4.031
ITEM: ATOMS id type xs ys zs
285 1 0.0300174 0.122302 0.119821
322 1 0.0793848 0.0724386 0.130985
401 1 0.0240635 0.00893079 0.151079
600 1 0.143637 0.0342347 0.0952617
920 1 0.146614 0.0818655 0.142645
1229 1 0.0880675 0.00198462 0.12255
1231 1 0.145621 0.147854 0.109898
1477 1 0.11486 0.0396924 0.0282808
1520 1 0.107169 0.10841 0.0620194
1747 1 0.165468 0.107666 0.0235674
1765 1 0.0565616 0.057802 0.0592905
1844 1 0.000744232 0.0967502 0.0312578
1854 1 0.0796328 0.164227 0.159514
486 1 0.201687 0.0511039 0.00694617
771 1 0.19871 0.156537 0.0674771
878 1 0.255024 0.0486232 0.111387
942 1 0.310345 0.0203423 0.149095
963 1 0.302654 0.0245597 0.0597867
1071 1 0.322997 0.130737 0.112627
1507 1 0.217068 0.0927809 0.14066
2035 1 0.251054 0.140164 0.113371
174 1 0.458199 0.165468 0.16001
237 1 0.451253 0.107169 0
538 1 0.390722 0.0364674 0.0580501
977 1 0.446043 0.0759117 0.0997271
986 1 0.413297 0.111139 0.14587
1514 1 0.341106 0.0647482 0.101216
1878 1 0.487224 0.0240635 0.114364
2088 1 0.347308 0.067229 0.0114116
152 1 0.574051 0.0305135 0.0156289
156 1 0.551972 0.0912925 0.0233193
242 1 0.623667 0.128752 0.142396
330 1 0.61027 0.13421 0.0116596
397 1 0.652692 0.0756636 0.0525924
502 1 0.518234 0.0952617 0.0840982
1068 1 0.632349 0.14711 0.0786405
1314 1 0.600347 0.032002 0.0816175
1351 1 0.527661 0.1548 0.148846
1709 1 0.510791 0.0121558 0.0337385
1906 1 0.553957 0.000744232 0.118581
2141 1 0.559663 0.0952617 0.155545
1 1 0.698338 0.134706 0.0587943
191 1 0.823121 0.0590424 0.028777
434 1 0.734805 0.0344828 0.0652444
850 1 0.7807 0.0756636 0.138427
1232 1 0.817167 0.0292731 0.0920367
1446 1 0.674771 0.0895559 0.155048
1560 1 0.824113 0.113868 0.067229
1861 1 0.715951 0.086579 0.105929
2169 1 0.760357 0.149591 0.0721905
208 1 0.887869 0.0220789 0.0548251
367 1 0.932523 0.0595386 0.163731
436 1 0.9484 0.126768 0.112627
468 1 0.964029 0.156289 0.0136443
1194 1 0.9742 0.00396924 0.105929
1374 1 0.845696 0.100223 0.129496
1837 1 0.886381 0.0248077 0.133466
1987 1 0.899281 0.0781444 0.0915406
2127 1 0.93674 0.0935252 0.0369635
387 1 0.0382039 0.264947 0.148846
541 1 0.13545 0.321756 0.155793
690 1 0.0903002 0.176631 0.0826098
763 1 0.105681 0.179856 0.0143885
1216 1 0.146118 0.256264 0.140412
1438 1 0.0535847 0.246589 0.0342347
1504 1 0.0451501 0.221285 0.0969983
1511 1 0.0587943 0.331431 0.138923
1991 1 0.0907963 0.328703 0.0798809
2151 1 0.108162 0.283304 0.0111635
326 1 0.171173 0.254279 0.028777
361 1 0.272885 0.317043 0.0439097
398 1 0.245845 0.284793 0.105929
557 1 0.245597 0.179112 0.0121558
614 1 0.214339 0.304639 0.00893079
804 1 0.243116 0.210122 0.123046
1547 1 0.1806 0.19226 0.146862
1715 1 0.310097 0.169685 0.0503597
1787 1 0.330191 0.280576 0.0595386
2041 1 0.179856 0.281816 0.0905483
2046 1 0.300918 0.251302 0.131233
5 1 0.418755 0.221781 0.096254
158 1 0.479782 0.25676 0.00099231
520 1 0.349045 0.209377 0.106425
1032 1 0.479037 0.325478 0.119077
1042 1 0.44381 0.235425 0.161746
1134 1 0.465889 0.171918 0.0850905
1375 1 0.342099 0.329695 0.114612
1376 1 0.486976 0.269412 0.0885636
1467 1 0.41553 0.173158 0.038452
1533 1 0.33416 0.219052 0.0138923
1696 1 0.427685 0.261226 0.0411808
1704 1 0.378318 0.305135 0.0166212
4 1 0.572315 0.238154 0.116844
253 1 0.546018 0.328206 0.143637
444 1 0.628628 0.238402 0.154056
817 1 0.51997 0.239891 0.158521
866 1 0.643017 0.266435 0.00471347
1196 1 0.56909 0.187547 0.0337385
1390 1 0.54974 0.282064 0.0682213
1581 1 0.55222 0.257504 0.00496155
1686 1 0.619449 0.309601 0.0533366
1963 1 0.541057 0.186306 0.0935252
49 1 0.759861 0.221781 0.0845944
88 1 0.732324 0.182089 0.131729
399 1 0.780452 0.259985 0.0022327
469 1 0.826346 0.259737 0.108658
1304 1 0.711982 0.266683 0.0905483
1344 1 0.793103 0.19871 0.0334904
1391 1 0.714959 0.275366 0.0183577
1690 1 0.724138 0.31481 0.128504
1719 1 0.823865 0.316299 0.156537
1845 1 0.67229 0.20392 0.105433
389 1 0.893823 0.258993 0.0258
517 1 0.849913 0.319524 0.0870752
551 1 0.977673 0.240883 0.158025
567 1 0.853882 0.169685 0.0563136
876 1 0.901017 0.324981 0.155048
1214 1 0.8839 0.229224 0.0836021
1433 1 0.895063 0.330191 0.0344828
1551 1 0.9871 0.254775 0.0568097
1595 1 0.945423 0.327462 0.103448
1744 1 0.907715 0.174895 0.143141
1808 1 0.850657 0.216572 0.154552
1836 1 0.945175 0.26197 0.105681
2009 1 0.997271 0.168693 0.0848425
2042 1 0.953361 0.28132 0.00595386
281 1 0.0446539 0.461176 0.165964
682 1 0.0895559 0.413297 0.105681
811 1 0.025552 0.359464 0.0729348
940 1 0.129248 0.374845 0.0563136
949 1 0.0312578 0.458199 0.0811213
1431 1 0.00322501 0.453734 0.0131481
1505 1 0.164723 0.442322 0.109898
1564 1 0.104689 0.475316 0.131729
1794 1 0.0295212 0.39221 0.0173654
1961 1 0.103448 0.421235 0.00124039
473 1 0.302158 0.372116 0.073679
978 1 0.232945 0.341603 0.143885
1157 1 0.278839 0.404614 0.00843463
1177 1 0.271645 0.413297 0.119077
1461 1 0.181593 0.420243 0.0466386
1629 1 0.261722 0.499132 0.136443
1740 1 0.244356 0.431655 0.0617713
1891 1 0.214835 0.488216 0.086579
1900 1 0.207393 0.432399 0.161995
1959 1 0.278343 0.484247 0.0354751
2142 1 0.188043 0.349789 0.0873232
124 1 0.493178 0.364922 0.00396924
187 1 0.334904 0.41801 0.137187
673 1 0.441826 0.442818 0.106177
829 1 0.387993 0.356239 0.0771521
1058 1 0.459935 0.483007 0.161746
1148 1 0.336145 0.488216 0.132225
1205 1 0.349293 0.413297 0.0334904
1324 1 0.431407 0.375589 0.123543
1373 1 0.483007 0.466386 0.0558174
1936 1 0.382039 0.425453 0.0888117
159 1 0.548499 0.393451 0.106177
1104 1 0.637559 0.470851 0.0724386
1346 1 0.522451 0.461424 0.144877
1846 1 0.586951 0.462912 0.0205904
1924 1 0.520218 0.348301 0.0597867
1958 1 0.517986 0.446043 0.00148846
2007 1 0.637063 0.374349 0.0533366
2032 1 0.612255 0.411064 0.100719
633 1 0.738278 0.435624 0.162739
639 1 0.819648 0.376581 0.116348
667 1 0.797073 0.462168 0.138179
968 1 0.772265 0.450757 0.0555693
1152 1 0.689407 0.482262 0.155793
1387 1 0.695857 0.440089 0.0791367
1389 1 0.827338 0.488961 0.0260481
1803 1 0.720913 0.347805 0.0146366
1941 1 0.77673 0.360456 0.0659886
1962 1 0.705036 0.367155 0.0828579
388 1 0.998015 0.365666 0.133962
741 1 0.937484 0.415778 0.0719424
795 1 0.885636 0.412305 0.0315058
826 1 0.860829 0.426445 0.0965021
1181 1 0.921111 0.493178 0.126768
1270 1 0.968494 0.483503 0.0741751
1301 1 0.978417 0.473084 0.164475
1452 1 0.946911 0.406103 0.138179
1471 1 0.957579 0.351774 0.0379558
1860 1 0.889357 0.446043 0.157529
1903 1 0.880675 0.487472 0.073679
31 1 0.123046 0.565616 0.154552
342 1 0.125031 0.638303 0.125279
855 1 0.163235 0.560903 0.0121558
913 1 0.115852 0.510543 0.00744232
1024 1 0.0436616 0.598859 0.10196
1090 1 0.100471 0.516497 0.0699578
1128 1 0.144381 0.561895 0.089804
1400 1 0.0602828 0.631357 0.0436616
1486 1 0.125527 0.62714 0.0436616
1711 1 0.0689655 0.612999 0.165468
2150 1 0.0359712 0.528901 0.0997271
236 1 0.328703 0.600099 0.116596
858 1 0.288266 0.541553 0.064252
914 1 0.230712 0.581493 0.131233
1262 1 0.28901 0.605061 0.0409328
1402 1 0.22972 0.580253 0.0101712
1425 1 0.208137 0.552965 0.0721905
2062 1 0.294716 0.663607 0.0778963
2125 1 0.273629 0.646986 0.149095
26 1 0.381791 0.666336 0.0503597
210 1 0.45423 0.637807 0.0208385
277 1 0.410072 0.538824 0.0711982
764 1 0.380799 0.637063 0.111635
837 1 0.475316 0.559166 0.0555693
956 1 0.429174 0.524932 0.00446539
1405 1 0.440089 0.605805 0.120814
1516 1 0.407095 0.550484 0.139916
1535 1 0.349045 0.504589 0.0654924
1716 1 0.49938 0.629869 0.0811213
107 1 0.559415 0.623915 0.054329
183 1 0.664847 0.545274 0.000248077
257 1 0.555197 0.559166 0.162739
406 1 0.649715 0.580501 0.110891
485 1 0.620938 0.503101 0.124783
755 1 0.583974 0.555197 0.102704
803 1 0.510047 0.520714 0.105185
981 1 0.619945 0.663359 0.0121558
994 1 0.625899 0.632597 0.0714463
1069 1 0.549988 0.560655 0.0458943
205 1 0.667824 0.525428 0.0677251
271 1 0.755892 0.546763 0.150087
506 1 0.730092 0.503597 0.0379558
859 1 0.70454 0.641032 0.121806
944 1 0.802778 0.614488 0.101464
974 1 0.696601 0.58199 0.157529
1265 1 0.744728 0.617217 0.0689655
1687 1 0.700074 0.613743 0.0218308
1904 1 0.77425 0.546763 0.0468866
2120 1 0.809228 0.522699 0.0989829
377 1 0.887373 0.630613 0.0205904
548 1 0.879931 0.604813 0.157281
762 1 0.924088 0.559911 0.123791
959 1 0.938229 0.586455 0.0478789
1495 1 0.946415 0.533366 0.0126519
1935 1 0.871248 0.621434 0.0855867
1957 1 0.986852 0.541553 0.144381
140 1 0.104441 0.714959 0.0362193
195 1 0.156041 0.73679 0.155296
303 1 0.100968 0.805259 0.105929
547 1 0.0342347 0.784917 0.0870752
749 1 0.0724386 0.675515 0.107169
754 1 0.0950136 0.765815 0.161746
827 1 0.0858348 0.807988 0.0240635
896 1 0.00372116 0.809725 0.159514
1352 1 0.153064 0.763582 0.0903002
1617 1 0.0528405 0.717192 0.157033
2162 1 0.0394443 0.718928 0.0622674
179 1 0.190275 0.735301 0.00917886
283 1 0.301414 0.710494 0.137683
602 1 0.285041 0.831307 0.0754155
618 1 0.208385 0.818407 0.0654924
928 1 0.195981 0.823369 0.142893
1363 1 0.171918 0.699082 0.0679732
1463 1 0.328703 0.711486 0.0396924
1544 1 0.310345 0.770032 0.0754155
1583 1 0.239891 0.761846 0.0478789
1948 1 0.246589 0.721161 0.102208
2031 1 0.193004 0.668072 0.123791
405 1 0.451997 0.767055 0.0486232
544 1 0.366906 0.696601 0.138427
577 1 0.430414 0.82064 0.0238154
1009 1 0.415778 0.765567 0.129248
1300 1 0.352518 0.78715 0.130241
1432 1 0.426693 0.716448 0.0932771
1896 1 0.472587 0.799553 0.161002
2057 1 0.48648 0.692632 0.108162
18 1 0.65939 0.785661 0.0565616
74 1 0.553709 0.82833 0.131977
333 1 0.592409 0.803771 0.0778963
354 1 0.552716 0.732821 0.0781444
487 1 0.602828 0.722153 0.123791
851 1 0.625155 0.754155 0.00471347
1044 1 0.657157 0.680476 0.104937
1139 1 0.566857 0.707517 0.0168693
1772 1 0.519474 0.78963 0.0498636
1831 1 0.501116 0.731828 0.163235
1907 1 0.646986 0.781196 0.125527
2128 1 0.503845 0.678244 0.0166212
7 1 0.69164 0.825602 0.00322501
510 1 0.720665 0.766559 0.12131
842 1 0.723394 0.718928 0.0627636
1127 1 0.752667 0.730836 0.00396924
1151 1 0.786405 0.774001 0.145373
1201 1 0.685934 0.684942 0.0124039
1249 1 0.750682 0.689407 0.145125
1297 1 0.778715 0.684197 0.0883156
1311 1 0.720665 0.832052 0.117837
1510 1 0.811709 0.72389 0.0441578
1826 1 0.814438 0.811213 0.00520963
1965 1 0.749938 0.815182 0.0379558
103 1 0.933019 0.788638 0.0630117
742 1 0.845696 0.792111 0.080129
880 1 0.977921 0.792855 0.0163731
1016 1 0.879186 0.793848 0.0230712
1163 1 0.902506 0.786405 0.136691
1527 1 0.888365 0.718432 0.0411808
1791 1 0.83354 0.732821 0.119573
1938 1 0.926817 0.729348 0.101712
2016 1 0.897792 0.674274 0.134706
2140 1 0.986604 0.739519 0.143885
395 1 0.142893 0.84123 0.0362193
698 1 0.107666 0.945423 0.143389
797 1 0.054329 0.987348 0.0176135
1182 1 0.0523443 0.970727 0.083354
1318 1 0.165468 0.904738 0.0781444
1444 1 0.0744232 0.907467 0.0414289
1934 1 0.0592905 0.855619 0.15356
1995 1 0.0146366 0.841975 0.0406847
2129 1 0.0935252 0.8839 0.103448
181 1 0.170677 0.914909 0.142893
186 1 0.227487 0.879682 0.0109154
526 1 0.333168 0.876954 0.0302654
733 1 0.25552 0.9355 0.0823617
756 1 0.258993 0.878442 0.128008
845 1 0.19102 0.999752 0.0563136
1319 1 0.30191 0.945919 0.0324981
1502 1 0.296701 0.955098 0.142396
1661 1 0.22575 0.989333 0.113123
2158 1 0.187298 0.939717 0.0285289
84 1 0.497643 0.851154 0.105681
383 1 0.381543 0.895063 0.101712
449 1 0.348301 0.95609 0.0937733
583 1 0.445299 0.936988 0.0568097
800 1 0.439097 0.871 0.0707021
1366 1 0.49293 0.907467 0.136691
1648 1 0.384768 0.995038 0.140164
2000 1 0.333664 0.848921 0.113868
2153 1 0.447284 0.969238 0.121558
2177 1 0.439593 0.997271 0.0300174
1183 1 0.573307 0.883156 0.166212
1327 1 0.657405 0.925825 0.133218
1419 1 0.61672 0.96775 0.0903002
1456 1 0.545274 0.947904 0.159018
1474 1 0.553709 0.943438 0.0711982
1657 1 0.608782 0.872984 0.0530886
1755 1 0.538824 0.879931 0.0582982
2106 1 0.615232 0.93029 0.0166212
212 1 0.668072 0.971471 0.00843463
483 1 0.762094 0.979161 0.0327462
561 1 0.794096 0.83354 0.104689
736 1 0.817911 0.881419 0.00942694
1103 1 0.740263 0.952369 0.114116
1238 1 0.689903 0.985363 0.0744232
1261 1 0.776978 0.913669 0.0679732
1388 1 0.791615 0.974696 0.151823
1397 1 0.719424 0.89804 0.0270404
1469 1 0.681221 0.878938 0.0912925
1658 1 0.820392 0.899281 0.123543
1718 1 0.696105 0.970727 0.163731
76 1 0.941206 0.987844 0.0444059
484 1 0.947904 0.839246 0.152071
493 1 0.838254 0.973456 0.0615232
576 1 0.920119 0.852642 0.0573059
718 1 0.863309 0.933267 0.0153808
881 1 0.912429 0.957083 0.129993
1002 1 0.996031 0.935252 0.115852
1105 1 0.945671 0.915406 0.0741751
1649 1 0.854627 0.948896 0.164723
1823 1 0.880675 0.86579 0.113123
2091 1 0.996279 0.866038 0.103448
707 1 0.115356 0.0808732 0.202927
838 1 0.0203423 0.0404366 0.238154
988 1 0.0845944 0.136691 0.225254
1070 1 0.151079 0.0605309 0.259737
1371 1 0.0652444 0.10841 0.333168
1442 1 0.124535 0.0099231 0.301414
1468 1 0.1161 0.0116596 0.206152
1513 1 0.0114116 0.00248077 0.322253
1633 1 0.060779 0.0458943 0.293972
2013 1 0.0372116 0.11486 0.272141
2157 1 0.0377078 0.070454 0.17812
11 1 0.305879 0.086579 0.270652
435 1 0.185314 0.00322501 0.19995
542 1 0.220541 0.061027 0.202431
789 1 0.26321 0.0163731 0.32771
961 1 0.279335 0.112379 0.326222
1053 1 0.249814 0.111139 0.232945
1481 1 0.286281 0.0439097 0.214091
1529 1 0.174646 0.126519 0.234929
2014 1 0.216075 0.0828579 0.296701
66 1 0.360705 0.0409328 0.322501
177 1 0.382783 0.099479 0.281072
550 1 0.376581 0.0163731 0.255024
728 1 0.336393 0.100471 0.197966
776 1 0.377822 0.057554 0.169685
833 1 0.419251 0.076904 0.223022
926 1 0.463409 0.0253039 0.250806
1246 1 0.480774 0.0915406 0.192508
1263 1 0.355743 0.162491 0.169933
1693 1 0.422972 0.140164 0.31357
1825 1 0.350533 0.158025 0.269412
165 1 0.662119 0.0235674 0.190027
209 1 0.591913 0.0230712 0.180848
660 1 0.527413 0.0387001 0.271149
705 1 0.645497 0.155545 0.225502
1195 1 0.563384 0.0912925 0.292235
1271 1 0.633838 0.108162 0.275614
1556 1 0.538824 0.0553213 0.204416
2067 1 0.538328 0.148598 0.267427
25 1 0.720417 0.0431655 0.234681
94 1 0.780452 0.0580501 0.2064
100 1 0.831307 0.120814 0.322749
355 1 0.703299 0.144381 0.190275
381 1 0.771025 0.0508559 0.280327
856 1 0.676507 0.0808732 0.325974
1403 1 0.769784 0.14587 0.220541
1512 1 0.717688 0.16522 0.270901
1697 1 0.701811 0.0156289 0.311833
1707 1 0.757876 0.116348 0.28132
168 1 0.933019 0.0791367 0.317043
427 1 0.910444 0.0813694 0.253783
626 1 0.954602 0.0334904 0.22327
665 1 0.903994 0.158273 0.275118
759 1 0.867279 0.0258 0.310097
785 1 0.855619 0.131729 0.18581
984 1 0.976185 0.145373 0.279335
1450 1 0.997767 0.124287 0.178616
1570 1 0.83875 0.15877 0.267179
1992 1 0.932771 0.119821 0.19995
2012 1 0.848425 0.0907963 0.234681
739 1 0.0168693 0.22327 0.237658
778 1 0.134706 0.200943 0.221781
1031 1 0.0295212 0.190027 0.29422
1186 1 0.157281 0.294468 0.261722
1282 1 0.0972463 0.178616 0.276606
1482 1 0.0054577 0.291491 0.223766
1670 1 0.0791367 0.227239 0.193004
2078 1 0.0903002 0.278591 0.250558
223 1 0.214339 0.22972 0.304391
267 1 0.187795 0.248325 0.219548
320 1 0.330439 0.222774 0.192756
391 1 0.201935 0.185314 0.252295
572 1 0.243364 0.1677 0.312329
1281 1 0.327214 0.229224 0.266683
1372 1 0.278839 0.316299 0.258993
1395 1 0.27487 0.169933 0.198462
2087 1 0.275614 0.298437 0.196725
2109 1 0.264699 0.249814 0.266683
2114 1 0.252543 0.230216 0.199206
119 1 0.484743 0.23741 0.292483
588 1 0.35227 0.321756 0.179608
1022 1 0.387249 0.264947 0.258993
1034 1 0.404614 0.176135 0.219052
1294 1 0.368395 0.312329 0.328703
1399 1 0.44902 0.226991 0.2322
1748 1 0.424709 0.269412 0.312578
1768 1 0.48003 0.169685 0.289506
6 1 0.637807 0.316795 0.26197
117 1 0.607542 0.318035 0.323741
622 1 0.598115 0.186058 0.182089
724 1 0.508807 0.328454 0.26321
863 1 0.644009 0.223518 0.2451
931 1 0.523195 0.280327 0.214587
1003 1 0.53808 0.198462 0.216075
1056 1 0.553461 0.258 0.284297
1156 1 0.624411 0.214587 0.309353
1192 1 0.60134 0.297693 0.171918
1233 1 0.559663 0.196973 0.309104
1729 1 0.595386 0.27487 0.235922
2003 1 0.528901 0.314314 0.325229
443 1 0.720169 0.283801 0.298685
460 1 0.678988 0.323741 0.186802
669 1 0.829571 0.266931 0.332176
819 1 0.685438 0.276854 0.234929
1536 1 0.757132 0.250558 0.216572
1608 1 0.794344 0.186058 0.175887
2063 1 0.761598 0.213843 0.291243
2159 1 0.809228 0.215331 0.24907
228 1 0.873481 0.32771 0.247333
291 1 0.967006 0.191268 0.198958
636 1 0.94195 0.279831 0.20392
907 1 0.851154 0.270156 0.198214
1208 1 0.904986 0.209129 0.223518
1606 1 0.873977 0.242124 0.277847
1790 1 0.926569 0.295708 0.271893
96 1 0.127264 0.390474 0.207393
233 1 0.0307616 0.41801 0.290251
290 1 0.0592905 0.400149 0.172166
905 1 0.0786405 0.333912 0.213347
924 1 0.0434135 0.334656 0.284297
990 1 0.0228231 0.482759 0.275614
1015 1 0.142645 0.350037 0.308112
1288 1 0.16646 0.429174 0.278343
1305 1 0.159018 0.488712 0.237906
1592 1 0.104689 0.403126 0.277599
172 1 0.271645 0.485984 0.286033
211 1 0.328703 0.384272 0.321508
218 1 0.181097 0.367155 0.174895
518 1 0.255768 0.35748 0.306872
645 1 0.166956 0.498636 0.311337
701 1 0.325726 0.495907 0.247333
1561 1 0.326222 0.363681 0.250062
1700 1 0.227735 0.498387 0.22972
1897 1 0.242372 0.436864 0.316795
2148 1 0.266683 0.443066 0.213347
2160 1 0.233193 0.400893 0.255272
245 1 0.393451 0.489705 0.236914
384 1 0.446291 0.387993 0.188539
569 1 0.440089 0.347556 0.317539
692 1 0.394195 0.41553 0.316299
815 1 0.45423 0.417514 0.279831
1067 1 0.342099 0.434632 0.223766
1185 1 0.380799 0.333416 0.268916
1329 1 0.372612 0.38328 0.193997
1396 1 0.443314 0.338378 0.244108
1483 1 0.441082 0.445547 0.217812
1508 1 0.351774 0.469859 0.329447
1727 1 0.433639 0.486232 0.28777
454 1 0.518234 0.417018 0.301662
578 1 0.505086 0.414785 0.216323
591 1 0.654428 0.429174 0.326222
1245 1 0.558422 0.382783 0.259241
1357 1 0.558174 0.382535 0.186306
1460 1 0.624907 0.382535 0.274126
1626 1 0.58447 0.476557 0.175143
1746 1 0.61672 0.410568 0.168445
1757 1 0.561151 0.491689 0.23617
1921 1 0.651699 0.494666 0.299429
1929 1 0.612503 0.444059 0.233441
2023 1 0.519722 0.483999 0.289506
101 1 0.738774 0.466137 0.316795
193 1 0.82585 0.338129 0.322253
357 1 0.751426 0.33937 0.326966
522 1 0.684197 0.403374 0.252047
721 1 0.676755 0.468618 0.227239
875 1 0.825354 0.42967 0.194493
929 1 0.78194 0.346068 0.264451
1021 1 0.759117 0.402878 0.225254
1209 1 0.72513 0.397916 0.310841
1523 1 0.688415 0.390474 0.188043
1524 1 0.772017 0.477797 0.25676
39 1 0.866286 0.49293 0.204416
114 1 0.881419 0.394443 0.256016
337 1 0.83478 0.478541 0.32002
642 1 0.930042 0.478789 0.222774
1193 1 0.983627 0.350533 0.33292
1290 1 0.916398 0.383528 0.330191
1634 1 0.953113 0.478045 0.332424
1750 1 0.897792 0.438105 0.303399
1776 1 0.903994 0.388985 0.186058
1912 1 0.996527 0.371124 0.252543
1986 1 0.944183 0.414041 0.246341
215 1 0.124287 0.613247 0.32647
516 1 0.051352 0.604813 0.329943
889 1 0.0421732 0.528157 0.22451
1011 1 0.108906 0.510543 0.191268
1137 1 0.0195981 0.581493 0.193252
1259 1 0.136443 0.596874 0.226247
1267 1 0.0347308 0.66584 0.259489
1883 1 0.086579 0.560159 0.259985
2130 1 0.111387 0.537584 0.322997
2131 1 0.0925329 0.636319 0.272389
566 1 0.288018 0.542049 0.203672
1264 1 0.185562 0.571322 0.177623
1462 1 0.298933 0.611015 0.266683
1497 1 0.227983 0.590424 0.301166
1521 1 0.228231 0.562143 0.233441
1576 1 0.235674 0.641776 0.240139
1685 1 0.258993 0.536591 0.330687
2025 1 0.311337 0.607293 0.186802
2168 1 0.175639 0.639295 0.270652
298 1 0.42446 0.561151 0.322501
455 1 0.443562 0.634086 0.187795
995 1 0.348053 0.564872 0.255768
1149 1 0.406103 0.591417 0.229968
1303 1 0.359216 0.533366 0.316547
1569 1 0.440834 0.625651 0.286281
1597 1 0.358224 0.535847 0.185562
1728 1 0.457951 0.537088 0.24386
2034 1 0.459687 0.548747 0.175143
53 1 0.599355 0.598859 0.317539
182 1 0.504589 0.604813 0.177871
250 1 0.530141 0.596626 0.332672
620 1 0.60382 0.56909 0.246341
758 1 0.518978 0.556934 0.276606
1059 1 0.59613 0.658149 0.278095
1339 1 0.549988 0.602828 0.222277
1625 1 0.593153 0.536839 0.303151
164 1 0.737286 0.513024 0.202431
244 1 0.678988 0.629372 0.246837
270 1 0.790375 0.606549 0.168693
453 1 0.744232 0.601092 0.248325
492 1 0.668569 0.592657 0.302406
497 1 0.748698 0.56264 0.305135
511 1 0.728355 0.633838 0.33292
655 1 0.813694 0.541801 0.304391
1162 1 0.672786 0.561895 0.225502
1887 1 0.809477 0.611015 0.234433
1926 1 0.799553 0.619697 0.30836
2117 1 0.704788 0.518482 0.268172
185 1 0.968494 0.526172 0.246093
432 1 0.941206 0.573059 0.207641
440 1 0.873977 0.559663 0.20516
623 1 0.935004 0.62317 0.26321
767 1 0.983627 0.637311 0.218804
1207 1 0.870007 0.594145 0.262218
1404 1 0.871 0.57678 0.327958
1655 1 0.837757 0.656909 0.168693
1806 1 0.987844 0.582486 0.296452
141 1 0.142645 0.677003 0.181097
413 1 0.16646 0.784917 0.26197
985 1 0.116348 0.695609 0.298933
1061 1 0.163235 0.708757 0.236418
1668 1 0.0756636 0.673778 0.199702
1738 1 0.044902 0.778219 0.286529
1779 1 0.0798809 0.816175 0.204912
1809 1 0.0379558 0.711238 0.306624
1955 1 0.106425 0.752667 0.268668
19 1 0.305383 0.827586 0.272389
219 1 0.215331 0.681221 0.188787
321 1 0.188539 0.777971 0.196477
775 1 0.322749 0.673282 0.265195
927 1 0.319028 0.736046 0.295212
1211 1 0.315554 0.739519 0.19226
1398 1 0.227487 0.797321 0.289754
1546 1 0.259737 0.826842 0.188787
1916 1 0.275118 0.781444 0.233193
2066 1 0.224014 0.724386 0.266435
86 1 0.363433 0.685438 0.206897
338 1 0.44902 0.829571 0.323245
535 1 0.356735 0.670057 0.325478
570 1 0.482014 0.695857 0.221285
930 1 0.374349 0.761846 0.264202
951 1 0.491937 0.782684 0.309353
1289 1 0.423964 0.687174 0.313074
1473 1 0.411312 0.70578 0.248325
1539 1 0.488961 0.670801 0.280576
1893 1 0.376333 0.819152 0.301662
1982 1 0.461672 0.756388 0.250062
2045 1 0.360953 0.831307 0.211114
2099 1 0.403126 0.776482 0.198462
37 1 0.597618 0.715703 0.191764
441 1 0.632845 0.764326 0.225999
450 1 0.609278 0.754403 0.330439
586 1 0.520218 0.713471 0.322253
677 1 0.666088 0.686926 0.19871
1018 1 0.560407 0.783428 0.181841
1088 1 0.552716 0.805755 0.28901
1379 1 0.660878 0.812205 0.325726
1838 1 0.551228 0.673778 0.223766
1877 1 0.582238 0.820144 0.231952
1928 1 0.628876 0.715951 0.27487
157 1 0.808484 0.693872 0.290251
650 1 0.745969 0.726867 0.265691
668 1 0.796825 0.694617 0.199702
703 1 0.689407 0.786157 0.201687
840 1 0.80774 0.771521 0.330935
946 1 0.796825 0.789382 0.212106
1047 1 0.691392 0.695113 0.288266
1236 1 0.719921 0.722898 0.205904
2072 1 0.757876 0.789134 0.283801
14 1 0.986604 0.78715 0.224758
113 1 0.943935 0.730836 0.225254
340 1 0.949888 0.684197 0.176631
617 1 0.906723 0.796577 0.321508
820 1 0.955594 0.757132 0.295956
1087 1 0.903498 0.682709 0.262714
1350 1 0.857355 0.764575 0.285537
1587 1 0.854627 0.716696 0.232945
1607 1 0.899281 0.781196 0.217068
1682 1 0.977921 0.826594 0.278095
1886 1 0.849417 0.755148 0.179608
2018 1 0.945671 0.693872 0.318283
24 1 0.147854 0.870007 0.305135
264 1 0.0436616 0.844207 0.261474
308 1 0.035227 0.897048 0.323245
415 1 0.0233193 0.921359 0.176631
704 1 0.132473 0.842967 0.242868
752 1 0.099231 0.906723 0.197718
1310 1 0.105929 0.94319 0.300174
1316 1 0.0555693 0.977921 0.209873
1378 1 0.146614 0.863061 0.175887
1488 1 0.00272885 0.952121 0.260729
1899 1 0.0592905 0.911684 0.261226
3 1 0.221285 0.882163 0.204416
36 1 0.234681 0.946415 0.172414
331 1 0.254775 0.934756 0.23741
973 1 0.306128 0.891094 0.249566
996 1 0.229472 0.965517 0.290499
1258 1 0.309849 0.900769 0.17812
1506 1 0.318779 0.985115 0.227735
1540 1 0.171918 0.971719 0.259489
1572 1 0.166956 0.914909 0.225006
1969 1 0.224262 0.870752 0.287274
57 1 0.381295 0.89035 0.171918
80 1 0.419747 0.951873 0.323245
284 1 0.420987 0.848177 0.249566
906 1 0.495411 0.939221 0.221285
1083 1 0.479782 0.835525 0.226495
1496 1 0.34458 0.916398 0.296701
1669 1 0.414041 0.91739 0.26197
1880 1 0.499628 0.964277 0.292483
2047 1 0.369883 0.95609 0.190027
2060 1 0.496899 0.994294 0.182833
2085 1 0.449268 0.892831 0.189283
2143 1 0.422228 0.971967 0.228231
72 1 0.577524 0.997767 0.282312
115 1 0.636319 0.843959 0.263458
297 1 0.628132 0.9355 0.251302
627 1 0.538328 0.868271 0.233689
861 1 0.548003 0.887373 0.32002
1184 1 0.633094 0.834532 0.183081
1721 1 0.637063 0.903002 0.190027
1914 1 0.557678 0.922104 0.267676
2073 1 0.662367 0.992062 0.251302
32 1 0.693376 0.871 0.243364
121 1 0.725626 0.842719 0.189779
167 1 0.824857 0.835277 0.271645
558 1 0.785661 0.925081 0.30067
687 1 0.727611 0.850905 0.302406
1073 1 0.785165 0.887869 0.183329
1141 1 0.714959 0.942446 0.227239
1586 1 0.719176 0.944927 0.296204
1710 1 0.668569 0.903746 0.308856
1785 1 0.823865 0.997767 0.215083
1839 1 0.783677 0.944679 0.227487
61 1 0.919127 0.89804 0.166956
98 1 0.894815 0.911436 0.228231
162 1 0.994542 0.869015 0.21037
546 1 0.959811 0.922352 0.322501
606 1 0.865542 0.883156 0.301166
1119 1 0.929794 0.861821 0.304639
1170 1 0.880923 0.99479 0.250806
1449 1 0.945175 0.965021 0.213347
1780 1 0.897296 0.938973 0.290995
1892 1 0.84123 0.866286 0.215579
777 1 0.139419 0.00248077 0.496651
839 1 0.104937 0.01935 0.395683
955 1 0.126768 0.127512 0.35103
997 1 0.0523443 0.117093 0.485736
1299 1 0.0270404 0.123543 0.384024
1358 1 0.00595386 0.0592905 0.400645
1420 1 0.165964 0.0267924 0.437112
1577 1 0.0989829 0.0595386 0.491689
1659 1 0.0761598 0.076904 0.424957
1749 1 0.162243 0.00967502 0.358472
58 1 0.305383 0.0550732 0.364922
190 1 0.254031 0.0367155 0.465641
200 1 0.17415 0.0811213 0.348549
286 1 0.291987 0.12255 0.453734
300 1 0.315554 0.114612 0.389482
684 1 0.19747 0.155545 0.466137
1013 1 0.20516 0.116844 0.400397
2011 1 0.226247 0.0272885 0.39866
2026 1 0.198958 0.0845944 0.464401
60 1 0.394195 0.0625155 0.422972
266 1 0.467874 0.104193 0.437609
585 1 0.429918 0.0483751 0.479782
1010 1 0.467874 0.104193 0.357976
1093 1 0.49293 0.0344828 0.491937
1198 1 0.383032 0.126768 0.48772
1210 1 0.338626 0.0235674 0.443314
1631 1 0.400645 0.132225 0.41677
1997 1 0.449516 0.0292731 0.386753
311 1 0.619449 0.16522 0.368395
439 1 0.507814 0.0525924 0.340362
501 1 0.526916 0.0099231 0.387497
862 1 0.510295 0.151823 0.393699
1039 1 0.56909 0.118829 0.359216
1081 1 0.61424 0.156289 0.442818
1852 1 0.650955 0.0759117 0.386505
2028 1 0.618953 0.0176135 0.429422
2103 1 0.576036 0.0756636 0.410568
8 1 0.81543 0.0508559 0.33937
135 1 0.768048 0.148598 0.486728
151 1 0.752419 0.0816175 0.395435
324 1 0.826842 0.0290251 0.405855
366 1 0.749194 0.0324981 0.35872
989 1 0.782436 0.0468866 0.455966
1006 1 0.761598 0.133466 0.350037
1328 1 0.81295 0.123791 0.41677
1415 1 0.683949 0.0486232 0.454478
1871 1 0.680724 0.152816 0.341106
1937 1 0.693128 0.114612 0.42198
475 1 0.867775 0.089804 0.420491
689 1 0.973456 0.123046 0.34061
1076 1 0.880427 0.0816175 0.350037
1174 1 0.963036 0.0337385 0.356983
1360 1 0.883404 0.0582982 0.477301
1543 1 0.96254 0.128504 0.451997
1983 1 0.871744 0.147606 0.469114
2156 1 0.916398 0.137683 0.400397
130 1 0.0456462 0.273877 0.489705
378 1 0.0525924 0.186802 0.373356
735 1 0.104441 0.251799 0.367403
1084 1 0.0888117 0.317787 0.341603
1355 1 0.0885636 0.277351 0.431655
1890 1 0.115604 0.288762 0.496403
2001 1 0.158521 0.176135 0.397916
2092 1 0.135202 0.190275 0.458943
2171 1 0.0176135 0.179856 0.44257
45 1 0.175887 0.265939 0.474076
110 1 0.168941 0.233689 0.362937
249 1 0.186802 0.284793 0.412057
423 1 0.250558 0.257256 0.398412
792 1 0.227487 0.28901 0.341106
1499 1 0.233937 0.173158 0.382783
1580 1 0.304887 0.319524 0.37038
1695 1 0.319524 0.219797 0.39742
1708 1 0.232945 0.21806 0.451005
1720 1 0.331183 0.308856 0.477797
1817 1 0.299677 0.197718 0.460184
2100 1 0.263706 0.299181 0.447532
534 1 0.468122 0.25552 0.486232
656 1 0.400645 0.320268 0.392955
679 1 0.360208 0.171918 0.378814
1197 1 0.473084 0.306376 0.363681
1279 1 0.446539 0.272389 0.421732
1735 1 0.342843 0.283801 0.412057
1804 1 0.440585 0.324485 0.481518
1905 1 0.462168 0.231208 0.368395
1922 1 0.478045 0.180352 0.452989
2118 1 0.392458 0.239891 0.452245
2133 1 0.425701 0.193004 0.416274
71 1 0.524932 0.213098 0.365914
136 1 0.584718 0.321756 0.499132
196 1 0.639295 0.266187 0.41553
715 1 0.529645 0.276606 0.418507
849 1 0.641032 0.266683 0.350781
1341 1 0.591665 0.304143 0.431159
1679 1 0.579509 0.250806 0.484743
1843 1 0.580749 0.20516 0.406847
54 1 0.788142 0.259737 0.388985
153 1 0.666832 0.258 0.480526
213 1 0.683949 0.329943 0.391714
299 1 0.71223 0.309104 0.454478
507 1 0.767551 0.274374 0.475812
1037 1 0.700571 0.23617 0.404366
1394 1 0.701563 0.225006 0.336393
1406 1 0.757628 0.329447 0.39221
1821 1 0.82709 0.200695 0.350781
1828 1 0.693624 0.177623 0.450757
1996 1 0.75738 0.196477 0.365914
2038 1 0.756636 0.204168 0.432399
2172 1 0.81543 0.21682 0.469114
216 1 0.889606 0.185314 0.342843
348 1 0.834036 0.309104 0.392458
458 1 0.92905 0.314066 0.35872
504 1 0.892582 0.288514 0.471595
730 1 0.930538 0.245845 0.352022
1142 1 0.999256 0.233937 0.344083
1180 1 0.847184 0.19226 0.416522
1188 1 0.996031 0.326718 0.485487
1286 1 0.912677 0.221533 0.41553
1590 1 0.971223 0.185562 0.395187
1999 1 0.935252 0.32771 0.424957
2081 1 0.953361 0.263706 0.454974
352 1 0.0213347 0.402133 0.352766
575 1 0.125279 0.453237 0.458199
860 1 0.0677251 0.470355 0.493178
1012 1 0.0491193 0.458447 0.37807
1118 1 0.128008 0.354999 0.454726
1213 1 0.0277847 0.376581 0.420243
1763 1 0.0233193 0.413049 0.481518
1816 1 0.126271 0.436616 0.39097
1864 1 0.0136443 0.476557 0.440337
2039 1 0.0940213 0.372364 0.389978
2161 1 0.14835 0.40387 0.496403
20 1 0.181345 0.349789 0.41032
120 1 0.244852 0.371372 0.464401
463 1 0.195981 0.346068 0.349293
615 1 0.299926 0.437857 0.359464
835 1 0.201935 0.414041 0.41032
1007 1 0.305383 0.392955 0.493178
1077 1 0.209625 0.44133 0.482014
1484 1 0.212106 0.483751 0.389978
1913 1 0.302903 0.477549 0.414785
1917 1 0.174895 0.435128 0.343587
1988 1 0.277847 0.45423 0.473332
2055 1 0.262218 0.380551 0.374597
289 1 0.394939 0.379558 0.419747
864 1 0.459439 0.421235 0.372116
900 1 0.459935 0.382287 0.449516
1080 1 0.383528 0.355247 0.481766
1117 1 0.362937 0.431655 0.471843
1187 1 0.427934 0.483751 0.364922
1931 1 0.362689 0.438105 0.401389
2105 1 0.427189 0.427437 0.490697
78 1 0.634086 0.425205 0.417762
217 1 0.539816 0.465641 0.42967
1164 1 0.619201 0.356735 0.392955