
                                 *****************
                                 * O   R   C   A *
                                 *****************

           --- An Ab Initio, DFT and Semiempirical electronic structure package ---

                  #######################################################
                  #                        -***-                        #
                  #  Department of molecular theory and spectroscopy    #
                  #              Directorship: Frank Neese              #
                  # Max Planck Institute for Chemical Energy Conversion #
                  #                  D-45470 Muelheim/Ruhr              #
                  #                       Germany                       #
                  #                                                     #
                  #                  All rights reserved                #
                  #                        -***-                        #
                  #######################################################


                         Program Version 4.0.1 -  RELEASE  -


 With contributions from (in alphabetic order):
   Daniel Aravena         : Magnetic Properties
   Michael Atanasov       : Ab Initio Ligand Field Theory
   Ute Becker             : Parallelization
   Martin Brehm           : Molecular dynamics
   Dmytro Bykov           : SCF Hessian
   Vijay G. Chilkuri      : MRCI spin determinant printing
   Dipayan Datta          : RHF DLPNO-CCSD density
   Achintya Kumar Dutta   : EOM-CC, STEOM-CC
   Dmitry Ganyushin       : Spin-Orbit,Spin-Spin,Magnetic field MRCI
   Yang Guo               : DLPNO-NEVPT2, CIM, IAO-localization
   Andreas Hansen         : Spin unrestricted coupled pair/coupled cluster methods
   Lee Huntington         : MR-EOM, pCC
   Robert Izsak           : Overlap fitted RIJCOSX, COSX-SCS-MP3, EOM
   Christian Kollmar      : KDIIS, OOCD, Brueckner-CCSD(T), CCSD density
   Simone Kossmann        : Meta GGA functionals, TD-DFT gradient, OOMP2, MP2 Hessian
   Martin Krupicka        : AUTO-CI
   Dagmar Lenk            : GEPOL surface
   Dimitrios Liakos       : Extrapolation schemes; parallel MDCI
   Dimitrios Manganas     : ROCIS; embedding schemes
   Dimitrios Pantazis     : SARC Basis sets
   Taras Petrenko         : DFT Hessian,TD-DFT gradient, ASA, ECA, R-Raman, ABS, FL, XAS/XES, NRVS
   Peter Pinski           : DLPNO-MP2
   Christoph Reimann      : Effective Core Potentials
   Marius Retegan         : Local ZFS, SOC
   Christoph Riplinger    : Optimizer, TS searches, QM/MM, DLPNO-CCSD(T), (RO)-DLPNO pert. Triples
   Tobias Risthaus        : Range-separated hybrids, TD-DFT gradient, RPA, STAB
   Michael Roemelt        : Restricted open shell CIS
   Masaaki Saitow         : Open-shell DLPNO
   Barbara Sandhoefer     : DKH picture change effects
   Kantharuban Sivalingam : CASSCF convergence, NEVPT2, FIC-MRCI
   Georgi Stoychev        : AutoAux
   Boris Wezisla          : Elementary symmetry handling
   Frank Wennmohs         : Technical directorship


 We gratefully acknowledge several colleagues who have allowed us to
 interface, adapt or use parts of their codes:
   Stefan Grimme, W. Hujo, H. Kruse,             : VdW corrections, initial TS optimization,
                  C. Bannwarth                     DFT functionals, gCP, sTDA/sTD-DF
   Ed Valeev                                     : LibInt (2-el integral package), F12 methods
   Garnet Chan, S. Sharma, J. Yang, R. Olivares  : DMRG
   Ulf Ekstrom                                   : XCFun DFT Library
   Mihaly Kallay                                 : mrcc  (arbitrary order and MRCC methods)
   Andreas Klamt, Michael Diedenhofen            : otool_cosmo (COSMO solvation model)
   Jiri Pittner, Ondrej Demel                    : Mk-CCSD
   Frank Weinhold                                : gennbo (NPA and NBO analysis)
   Christopher J. Cramer and Donald G. Truhlar   : smd solvation model


 Your calculation uses the libint2 library for the computation of 2-el integrals
 For citations please refer to: http://libint.valeyev.net

 This ORCA versions uses:
   CBLAS   interface :  Fast vector & matrix operations
   LAPACKE interface :  Fast linear algebra routines
   SCALAPACK package :  Parallel linear algebra routines


Your calculation utilizes the basis: cc-pVTZ 
       H, B-Ne : Obtained from the ccRepo (grant-hill.group.shef.ac.uk/ccrepo) Feb. 2017
                 T. H. Dunning, Jr., J. Chem. Phys. 90, 1007 (1989)
            He : Obtained from the ccRepo (grant-hill.group.shef.ac.uk/ccrepo) Feb. 2017
                 D. E. Woon, T. H. Dunning, Jr., J. Chem. Phys. 100, 2975 (1994)
  Li-Be, Na-Mg : Obtained from the ccRepo (grant-hill.group.shef.ac.uk/ccrepo) Feb. 2017
                 B. P. Prascher, D. E. Woon, K. A. Peterson, T. H. Dunning, Jr., A. K. Wilson, Theor. Chem. Acc. 128, 69 (2011)
         Al-Ar : Obtained from the ccRepo (grant-hill.group.shef.ac.uk/ccrepo) Feb. 2017
                 D. E. Woon, T. H. Dunning, Jr., J. Chem. Phys. 98, 1358 (1993)
            Ca : Obtained from the Peterson Research Group Website (tyr0.chem.wsu.edu/~kipeters) Feb. 2017
                 J. Koput, K. A. Peterson, J. Phys. Chem. 106, 9595 (2002)
         Sc-Zn : Obtained from the ccRepo (grant-hill.group.shef.ac.uk/ccrepo) Feb. 2017
                 N. B. Balabanov, K. A. Peterson, J. Chem. Phys. 123, 064107 (2005)
                 N. B. Balabanov, K. A. Peterson, J. Chem. Phys. 125, 074110 (2006)
         Ga-Kr : Obtained from the ccRepo (grant-hill.group.shef.ac.uk/ccrepo) Feb. 2017
                 A. K. Wilson, D. E. Woon, K. A. Peterson, T. H. Dunning, Jr., J. Chem. Phys. 110, 7667 (1999)
             Y : Obtained from the ccRepo (grant-hill.group.shef.ac.uk/ccrepo) Feb. 2017
                 K. A. Peterson, D. Figgen, M. Dolg, H. Stoll, J. Chem. Phys. 126, 124101 (2007)
        Ag, Au : Obtained from the Peterson Research Group Website (tyr0.chem.wsu.edu/~kipeters) Feb. 2017
                 K. A. Peterson, C. Puzzarini, Theor. Chem. Acc. 114, 283 (2005)

Your calculation utilizes the auxiliary basis: def2/J
   F. Weigend, Phys. Chem. Chem. Phys. 8, 1057 (2006).

================================================================================
                                        WARNINGS
                       Please study these warnings very carefully!
================================================================================

Warning: TCutStore was < 0. Adjusted to Thresh (uncritical)

WARNING: your system is open-shell and RHF/RKS was chosen
  ===> : WILL SWITCH to UHF/UKS


INFO   : the flag for use of LIBINT has been found!

================================================================================
                                       INPUT FILE
================================================================================
NAME = system.inp
|  1> * xyz  1 2
|  2>   C   11.74900087301513     10.83466152787343      9.85570686810262
|  3>   C   10.48047716613088     11.21369140365122      9.51438834881580
|  4>   S   9.34064724310574     10.30916949725020     10.31790763388404
|  5>   C   10.47398596248998      9.40336030726578     11.12907407004676
|  6>   C   11.74529900769204      9.78042365234236     10.79607732244523
|  7>   H   12.64106060068348     11.29083790819463      9.45090881733661
|  8>   H   10.19420913092537     11.98899877875689      8.82181671349346
|  9>   H   10.18150178674088      8.62858482789267     11.81967233638997
| 10>   H   12.63411822921651      9.32267209677281     11.20614788948551
| 11> * 
| 12> 
| 13> %pal
| 14>  nprocs 4
| 15> end
| 16> 
| 17>  
| 18> 
| 19> ! DFT  PBE0 RIJK cc-pVTZ
| 20> 
| 21> 
| 22>                          ****END OF INPUT****
================================================================================

                       ****************************
                       * Single Point Calculation *
                       ****************************

---------------------------------
CARTESIAN COORDINATES (ANGSTROEM)
---------------------------------
  C     11.749001   10.834662    9.855707
  C     10.480477   11.213691    9.514388
  S      9.340647   10.309169   10.317908
  C     10.473986    9.403360   11.129074
  C     11.745299    9.780424   10.796077
  H     12.641061   11.290838    9.450909
  H     10.194209   11.988999    8.821817
  H     10.181502    8.628585   11.819672
  H     12.634118    9.322672   11.206148

----------------------------
CARTESIAN COORDINATES (A.U.)
----------------------------
  NO LB      ZA    FRAG     MASS         X           Y           Z
   0 C     6.0000    0    12.011   22.202394   20.474543   18.624587
   1 C     6.0000    0    12.011   19.805232   21.190806   17.979588
   2 S    16.0000    0    32.060   17.651265   19.481507   19.498020
   3 C     6.0000    0    12.011   19.792965   17.769776   21.030902
   4 C     6.0000    0    12.011   22.195398   18.482322   20.401629
   5 H     1.0000    0     1.008   23.888143   21.336591   17.859629
   6 H     1.0000    0     1.008   19.264263   22.655924   16.670818
   7 H     1.0000    0     1.008   19.240250   16.305662   22.335944
   8 H     1.0000    0     1.008   23.875023   17.617297   21.176551

--------------------------------
INTERNAL COORDINATES (ANGSTROEM)
--------------------------------
 C      0   0   0     0.000000000000     0.00000000     0.00000000
 C      1   0   0     1.367228720174     0.00000000     0.00000000
 S      2   1   0     1.662232045792   111.38826788     0.00000000
 C      3   2   1     1.662208750029    93.72072825     0.00000000
 C      4   3   2     1.367223631676   111.39843071     0.00000000
 H      1   2   3     1.080615060785   123.73616120   179.98105336
 H      2   1   3     1.078288636649   127.30005641   180.02498751
 H      4   3   2     1.078308862051   121.27503025   179.98226409
 H      5   4   3     1.080598891879   123.75014972   180.03330511

---------------------------
INTERNAL COORDINATES (A.U.)
---------------------------
 C      0   0   0     0.000000000000     0.00000000     0.00000000
 C      1   0   0     2.583687843560     0.00000000     0.00000000
 S      2   1   0     3.141163337575   111.38826788     0.00000000
 C      3   2   1     3.141119314962    93.72072825     0.00000000
 C      4   3   2     2.583678227694   111.39843071     0.00000000
 H      1   2   3     2.042066521074   123.73616120   179.98105336
 H      2   1   3     2.037670216586   127.30005641   180.02498751
 H      4   3   2     2.037708437057   121.27503025   179.98226409
 H      5   4   3     2.042035966270   123.75014972   180.03330511

---------------------
BASIS SET INFORMATION
---------------------
There are 3 groups of distinct atoms

 Group   1 Type C   : 18s5p2d1f contracted to 4s3p2d1f pattern {8811/311/11/1}
 Group   2 Type S   : 41s16p2d1f contracted to 5s4p2d1f pattern {13131311/7711/11/1}
 Group   3 Type H   : 5s2p1d contracted to 3s2p1d pattern {311/11/1}

Atom   0C    basis set group =>   1
Atom   1C    basis set group =>   1
Atom   2S    basis set group =>   2
Atom   3C    basis set group =>   1
Atom   4C    basis set group =>   1
Atom   5H    basis set group =>   3
Atom   6H    basis set group =>   3
Atom   7H    basis set group =>   3
Atom   8H    basis set group =>   3
-------------------------------
AUXILIARY BASIS SET INFORMATION
-------------------------------
There are 3 groups of distinct atoms

 Group   1 Type C   : 12s5p4d2f1g contracted to 6s4p3d1f1g pattern {711111/2111/211/2/1}
 Group   2 Type S   : 14s5p5d2f1g contracted to 8s4p3d1f1g pattern {71111111/2111/311/2/1}
 Group   3 Type H   : 5s2p1d contracted to 3s1p1d pattern {311/2/1}

Atom   0C    basis set group =>   1
Atom   1C    basis set group =>   1
Atom   2S    basis set group =>   2
Atom   3C    basis set group =>   1
Atom   4C    basis set group =>   1
Atom   5H    basis set group =>   3
Atom   6H    basis set group =>   3
Atom   7H    basis set group =>   3
Atom   8H    basis set group =>   3


           ************************************************************
           *        Program running with 4 parallel MPI-processes     *
           *              working on a common directory               *
           ************************************************************
------------------------------------------------------------------------------
                           ORCA GTO INTEGRAL CALCULATION
                           -- RI-GTO INTEGRALS CHOSEN --
------------------------------------------------------------------------------

                         BASIS SET STATISTICS AND STARTUP INFO

Gaussian basis set:
 # of primitive gaussian shells          ...  196
 # of primitive gaussian functions       ...  370
 # of contracted shells                  ...   76
 # of contracted basis functions         ...  210
 Highest angular momentum                ...    3
 Maximum contraction depth               ...   13
Auxiliary gaussian basis set:
 # of primitive gaussian shells          ...  155
 # of primitive gaussian functions       ...  421
 # of contracted shells                  ...   97
 # of contracted aux-basis functions     ...  291
 Highest angular momentum                ...    4
 Maximum contraction depth               ...    7
Ratio of auxiliary to basis functions    ...  1.39
Integral package used                  ... LIBINT
 One Electron integrals                  ... done
 Ordering auxiliary basis shells         ... done
 Integral threshhold             Thresh  ...  1.000e-10
 Primitive cut-off               TCut    ...  1.000e-11
 Pre-screening matrix                    ... done
 Shell pair data                         ... 
 Ordering of the shell pairs             ... done (   0.001 sec) 2899 of 2926 pairs
 Determination of significant pairs      ... done (   0.000 sec)
 Creation of shell pair data             ... done (   0.001 sec)
 Storage of shell pair data              ... done (   0.003 sec)
 Shell pair data done in (   0.005 sec)
 Computing two index integrals           ... done
 Cholesky decomposition of the V-matrix  ... done


Timings:
 Total evaluation time                   ...   0.353 sec (  0.006 min)
 One electron matrix time                ...   0.033 sec (  0.001 min) =  9.2%
 Schwartz matrix evaluation time         ...   0.295 sec (  0.005 min) = 83.8%
 Two index repulsion integral time       ...   0.001 sec (  0.000 min) =  0.4%
 Cholesky decomposition of V             ...   0.001 sec (  0.000 min) =  0.3%
 Three index repulsion integral time     ...   0.000 sec (  0.000 min) =  0.0%



           ************************************************************
           *        Program running with 4 parallel MPI-processes     *
           *              working on a common directory               *
           ************************************************************
-------------------------------------------------------------------------------
                                 ORCA SCF
-------------------------------------------------------------------------------

------------
SCF SETTINGS
------------
Hamiltonian:
 Density Functional     Method          .... DFT(GTOs)
 Exchange Functional    Exchange        .... PBE
   PBE kappa parameter   XKappa         ....  0.804000
   PBE mue parameter    XMuePBE         ....  0.219520
 Correlation Functional Correlation     .... PBE
   PBE beta parameter  CBetaPBE         ....  0.066725
 LDA part of GGA corr.  LDAOpt          .... PW91-LDA
 Gradients option       PostSCFGGA      .... off
 Hybrid DFT is turned on
   Fraction HF Exchange ScalHFX         ....  0.250000
   Scaling of DF-GGA-X  ScalDFX         ....  0.750000
   Scaling of DF-GGA-C  ScalDFC         ....  1.000000
   Scaling of DF-LDA-C  ScalLDAC        ....  1.000000
   Perturbative correction              ....  0.000000
   NL short-range parameter             ....  6.900000
 RI-approximation to the Coulomb term is turned on
   Number of auxiliary basis functions  .... 291
   RI-JK (J+K treated both via RI)      .... on


General Settings:
 Integral files         IntName         .... system
 Hartree-Fock type      HFTyp           .... UHF
 Total Charge           Charge          ....    1
 Multiplicity           Mult            ....    2
 Number of Electrons    NEL             ....   43
 Basis Dimension        Dim             ....  210
 Nuclear Repulsion      ENuc            ....    206.2683705738 Eh

Convergence Acceleration:
 DIIS                   CNVDIIS         .... on
   Start iteration      DIISMaxIt       ....    12
   Startup error        DIISStart       ....  0.200000
   # of expansion vecs  DIISMaxEq       ....     5
   Bias factor          DIISBfac        ....   1.050
   Max. coefficient     DIISMaxC        ....  10.000
 Newton-Raphson         CNVNR           .... off
 SOSCF                  CNVSOSCF        .... off
 Level Shifting         CNVShift        .... on
   Level shift para.    LevelShift      ....    0.2500
   Turn off err/grad.   ShiftErr        ....    0.0010
 Zerner damping         CNVZerner       .... off
 Static damping         CNVDamp         .... on
   Fraction old density DampFac         ....    0.7000
   Max. Damping (<1)    DampMax         ....    0.9800
   Min. Damping (>=0)   DampMin         ....    0.0000
   Turn off err/grad.   DampErr         ....    0.1000
 Fernandez-Rico         CNVRico         .... off

SCF Procedure:
 Maximum # iterations   MaxIter         ....   125
 SCF integral mode      SCFMode         .... Direct
   Integral package                     .... LIBINT
 Reset frequeny         DirectResetFreq ....    20
 Integral Threshold     Thresh          ....  1.000e-10 Eh
 Primitive CutOff       TCut            ....  1.000e-11 Eh

Convergence Tolerance:
 Convergence Check Mode ConvCheckMode   .... Total+1el-Energy
 Convergence forced     ConvForced      .... 0
 Energy Change          TolE            ....  1.000e-06 Eh
 1-El. energy change                    ....  1.000e-03 Eh
 DIIS Error             TolErr          ....  1.000e-06


Diagonalization of the overlap matrix:
Smallest eigenvalue                        ... 1.612e-04
Time for diagonalization                   ...    0.007 sec
Threshold for overlap eigenvalues          ... 1.000e-08
Number of eigenvalues below threshold      ... 0
Time for construction of square roots      ...    0.004 sec
Total time needed                          ...    0.010 sec

-------------------
DFT GRID GENERATION
-------------------

General Integration Accuracy     IntAcc      ...  4.340
Radial Grid Type                 RadialGrid  ... Gauss-Chebyshev
Angular Grid (max. acc.)         AngularGrid ... Lebedev-110
Angular grid pruning method      GridPruning ... 3 (G Style)
Weight generation scheme         WeightScheme... Becke
Basis function cutoff            BFCut       ...    1.0000e-10
Integration weight cutoff        WCut        ...    1.0000e-14
Grids for H and He will be reduced by one unit

# of grid points (after initial pruning)     ...  11606 (   0.0 sec)
# of grid points (after weights+screening)   ...  11089 (   0.0 sec)
nearest neighbour list constructed           ...    0.0 sec
Grid point re-assignment to atoms done       ...    0.0 sec
Grid point division into batches done        ...    0.0 sec
Reduced shell lists constructed in    0.0 sec

Total number of grid points                  ...    11089
Total number of batches                      ...      177
Average number of points per batch           ...       62
Average number of grid points per atom       ...     1232
Average number of shells per batch           ...    66.11 (86.99%)
Average number of basis functions per batch  ...   181.37 (86.37%)
Average number of large shells per batch     ...    57.96 (87.67%)
Average number of large basis fcns per batch ...   160.52 (88.51%)
Average number of aux-shells per batch       ...    66.11 (68.15%)
Average number of aux functions per batch    ...   181.37 (62.33%)
Maximum spatial batch extension              ...  17.90, 15.68, 15.07 au
Average spatial batch extension              ...   0.79,  1.01,  1.02 au

Time for grid setup =    0.057 sec

------------------------------
INITIAL GUESS: MODEL POTENTIAL
------------------------------
Loading Hartree-Fock densities                     ... done
Calculating cut-offs                               ... done
Setting up the integral package                    ... done
Initializing the effective Hamiltonian             ... done
Starting the Coulomb interaction                   ... done (   0.0 sec)
Reading the grid                                   ... done
Mapping shells                                     ... done
Starting the XC term evaluation                    ... done (   0.1 sec)
  promolecular density results
     # of electrons  =     43.994876186
     EX              =    -46.568433618
     EC              =     -1.545993263
     EX+EC           =    -48.114426882
Transforming the Hamiltonian                       ... done (   0.0 sec)
Diagonalizing the Hamiltonian                      ... done (   0.0 sec)
Back transforming the eigenvectors                 ... done (   0.0 sec)
Now organizing SCF variables                       ... done
                      ------------------
                      INITIAL GUESS DONE (   0.2 sec)
                      ------------------
--------------
SCF ITERATIONS
--------------
ITER       Energy         Delta-E        Max-DP      RMS-DP      [F,P]     Damp
  0   -551.7210634545   0.000000000000 0.03150094  0.00041582  0.1127036 0.7000
  1   -551.7588676029  -0.037804148393 0.02764375  0.00035141  0.0717519 0.7000
                               ***Turning on DIIS***
  2   -551.7890211535  -0.030153550604 0.04666636  0.00061859  0.0287129 0.0000
  3   -551.8273465102  -0.038325356747 0.01787621  0.00026180  0.0530166 0.0000
  4   -551.8552471131  -0.027900602823 0.00976324  0.00013158  0.0210394 0.0000
  5   -551.8599121210  -0.004665007899 0.00512856  0.00006430  0.0082109 0.0000
  6   -551.8609693646  -0.001057243626 0.00239215  0.00002871  0.0035321 0.0000
  7   -551.8612005646  -0.000231200027 0.00163699  0.00002128  0.0012347 0.0000
  8   -551.8612958733  -0.000095308714 0.00187951  0.00002623  0.0006760 0.0000
  9   -551.8613491162  -0.000053242910 0.00060468  0.00000732  0.0003179 0.0000
 10   -551.8613541218  -0.000005005581 0.00021416  0.00000309  0.0000683 0.0000
 11   -551.8613549846  -0.000000862763 0.00007813  0.00000099  0.0000231 0.0000
                 **** Energy Check signals convergence ****

               *****************************************************
               *                     SUCCESS                       *
               *           SCF CONVERGED AFTER  12 CYCLES          *
               *****************************************************

Setting up the final grid:

General Integration Accuracy     IntAcc      ...  4.670
Radial Grid Type                 RadialGrid  ... Gauss-Chebyshev
Angular Grid (max. acc.)         AngularGrid ... Lebedev-302
Angular grid pruning method      GridPruning ... 3 (G Style)
Weight generation scheme         WeightScheme... Becke
Basis function cutoff            BFCut       ...    1.0000e-10
Integration weight cutoff        WCut        ...    1.0000e-14
Grids for H and He will be reduced by one unit

# of grid points (after initial pruning)     ...  45270 (   0.0 sec)
# of grid points (after weights+screening)   ...  42839 (   0.0 sec)
nearest neighbour list constructed           ...    0.0 sec
Grid point re-assignment to atoms done       ...    0.0 sec
Grid point division into batches done        ...    0.2 sec
Reduced shell lists constructed in    0.3 sec

Total number of grid points                  ...    42839
Total number of batches                      ...      676
Average number of points per batch           ...       63
Average number of grid points per atom       ...     4760
Average number of shells per batch           ...    64.00 (84.21%)
Average number of basis functions per batch  ...   175.01 (83.34%)
Average number of large shells per batch     ...    53.01 (82.82%)
Average number of large basis fcns per batch ...   146.51 (83.72%)
Maximum spatial batch extension              ...  15.37, 16.94, 17.06 au
Average spatial batch extension              ...   0.51,  0.57,  0.56 au

Final grid set up in    0.4 sec
Final integration                            ... done (   0.6 sec)
Change in XC energy                          ...    -0.000124051
Integrated number of electrons               ...    43.000001854
Previous integrated no of electrons          ...    42.999852655

----------------
TOTAL SCF ENERGY
----------------

Total Energy       :         -551.86147915 Eh          -15016.91429 eV

Components:
Nuclear Repulsion  :          206.26837057 Eh            5612.84771 eV
Electronic Energy  :         -758.12984972 Eh          -20629.76201 eV
One Electron Energy:        -1155.30047679 Eh          -31437.32422 eV
Two Electron Energy:          397.17062707 Eh           10807.56221 eV

Virial components:
Potential Energy   :        -1101.84161619 Eh          -29982.63466 eV
Kinetic Energy     :          549.98013704 Eh           14965.72037 eV
Virial Ratio       :            2.00342075


DFT components:
N(Alpha)           :       21.999999930361 electrons
N(Beta)            :       21.000001923757 electrons
N(Total)           :       43.000001854118 electrons
E(X)               :      -35.033541900905 Eh       
E(C)               :       -1.511939670399 Eh       
E(XC)              :      -36.545481571304 Eh       

---------------
SCF CONVERGENCE
---------------

  Last Energy change         ...   -1.1461e-07  Tolerance :   1.0000e-06
  Last MAX-Density change    ...    2.8959e-05  Tolerance :   1.0000e-05
  Last RMS-Density change    ...    5.0727e-07  Tolerance :   1.0000e-06
  Last DIIS Error            ...    8.8160e-06  Tolerance :   1.0000e-06

             **** THE GBW FILE WAS UPDATED (system.gbw) ****
             **** DENSITY FILE WAS UPDATED (system.scfp.tmp) ****
             **** ENERGY FILE WAS UPDATED (system.en.tmp) ****
----------------------
UHF SPIN CONTAMINATION
----------------------

Warning: in a DFT calculation there is little theoretical justification to 
         calculate <S**2> as in Hartree-Fock theory. We will do it anyways
         but you should keep in mind that the values have only limited relevance

Expectation value of <S**2>     :     0.781967
Ideal value S*(S+1) for S=0.5   :     0.750000
Deviation                       :     0.031967

----------------
ORBITAL ENERGIES
----------------
                 SPIN UP ORBITALS
  NO   OCC          E(Eh)            E(eV) 
   0   1.0000     -89.370655     -2431.8992 
   1   1.0000     -10.490989      -285.4743 
   2   1.0000     -10.490441      -285.4594 
   3   1.0000     -10.475111      -285.0423 
   4   1.0000     -10.475070      -285.0411 
   5   1.0000      -8.247353      -224.4219 
   6   1.0000      -6.163160      -167.7081 
   7   1.0000      -6.158396      -167.5785 
   8   1.0000      -6.156813      -167.5354 
   9   1.0000      -1.177698       -32.0468 
  10   1.0000      -1.023984       -27.8640 
  11   1.0000      -0.984574       -26.7916 
  12   1.0000      -0.813597       -22.1391 
  13   1.0000      -0.812049       -22.0970 
  14   1.0000      -0.769205       -20.9311 
  15   1.0000      -0.663980       -18.0678 
  16   1.0000      -0.649682       -17.6787 
  17   1.0000      -0.642259       -17.4768 
  18   1.0000      -0.638879       -17.3848 
  19   1.0000      -0.602950       -16.4071 
  20   1.0000      -0.540467       -14.7069 
  21   1.0000      -0.484783       -13.1916 
  22   0.0000      -0.242275        -6.5926 
  23   0.0000      -0.189110        -5.1460 
  24   0.0000      -0.174678        -4.7532 
  25   0.0000      -0.114250        -3.1089 
  26   0.0000      -0.108731        -2.9587 
  27   0.0000      -0.069055        -1.8791 
  28   0.0000      -0.059372        -1.6156 
  29   0.0000      -0.046959        -1.2778 
  30   0.0000      -0.000958        -0.0261 
  31   0.0000       0.001007         0.0274 
  32   0.0000       0.037571         1.0224 
  33   0.0000       0.051608         1.4043 
  34   0.0000       0.080425         2.1885 
  35   0.0000       0.091317         2.4849 
  36   0.0000       0.104501         2.8436 
  37   0.0000       0.136097         3.7034 
  38   0.0000       0.137753         3.7484 
  39   0.0000       0.139505         3.7961 
  40   0.0000       0.162441         4.4202 
  41   0.0000       0.167836         4.5671 
  42   0.0000       0.169099         4.6014 
  43   0.0000       0.176421         4.8007 
  44   0.0000       0.194896         5.3034 
  45   0.0000       0.221687         6.0324 
  46   0.0000       0.242465         6.5978 
  47   0.0000       0.254985         6.9385 
  48   0.0000       0.281621         7.6633 
  49   0.0000       0.285089         7.7577 
  50   0.0000       0.305649         8.3171 
  51   0.0000       0.329371         8.9626 
  52   0.0000       0.338416         9.2088 
  53   0.0000       0.378202        10.2914 
  54   0.0000       0.383867        10.4455 
  55   0.0000       0.402434        10.9508 
  56   0.0000       0.455156        12.3854 
  57   0.0000       0.461291        12.5524 
  58   0.0000       0.482990        13.1428 
  59   0.0000       0.509915        13.8755 
  60   0.0000       0.511442        13.9170 
  61   0.0000       0.591535        16.0965 
  62   0.0000       0.603110        16.4115 
  63   0.0000       0.607954        16.5433 
  64   0.0000       0.649532        17.6747 
  65   0.0000       0.682137        18.5619 
  66   0.0000       0.719553        19.5800 
  67   0.0000       0.746947        20.3255 
  68   0.0000       0.759270        20.6608 
  69   0.0000       0.770138        20.9565 
  70   0.0000       0.793415        21.5899 
  71   0.0000       0.829223        22.5643 
  72   0.0000       0.853815        23.2335 
  73   0.0000       0.854115        23.2416 
  74   0.0000       0.896235        24.3878 
  75   0.0000       0.935978        25.4693 
  76   0.0000       0.993793        27.0425 
  77   0.0000       0.998140        27.1608 
  78   0.0000       1.024280        27.8721 
  79   0.0000       1.033852        28.1325 
  80   0.0000       1.062042        28.8996 
  81   0.0000       1.064312        28.9614 
  82   0.0000       1.077853        29.3299 
  83   0.0000       1.107711        30.1424 
  84   0.0000       1.120477        30.4897 
  85   0.0000       1.185295        32.2535 
  86   0.0000       1.195782        32.5389 
  87   0.0000       1.198639        32.6166 
  88   0.0000       1.253943        34.1215 
  89   0.0000       1.302031        35.4301 
  90   0.0000       1.324900        36.0524 
  91   0.0000       1.339391        36.4467 
  92   0.0000       1.342818        36.5399 
  93   0.0000       1.386513        37.7289 
  94   0.0000       1.393570        37.9210 
  95   0.0000       1.456767        39.6407 
  96   0.0000       1.523085        41.4452 
  97   0.0000       1.572130        42.7798 
  98   0.0000       1.603581        43.6357 
  99   0.0000       1.622189        44.1420 
 100   0.0000       1.714987        46.6672 
 101   0.0000       1.716995        46.7218 
 102   0.0000       1.727703        47.0132 
 103   0.0000       1.738834        47.3161 
 104   0.0000       1.768586        48.1257 
 105   0.0000       1.827877        49.7391 
 106   0.0000       1.857698        50.5505 
 107   0.0000       1.902692        51.7749 
 108   0.0000       1.964455        53.4555 
 109   0.0000       2.006417        54.5974 
 110   0.0000       2.024579        55.0916 
 111   0.0000       2.031813        55.2885 
 112   0.0000       2.052308        55.8461 
 113   0.0000       2.164612        58.9021 
 114   0.0000       2.192471        59.6602 
 115   0.0000       2.216378        60.3107 
 116   0.0000       2.233980        60.7897 
 117   0.0000       2.245899        61.1140 
 118   0.0000       2.312937        62.9382 
 119   0.0000       2.337147        63.5970 
 120   0.0000       2.405604        65.4598 
 121   0.0000       2.431207        66.1565 
 122   0.0000       2.438356        66.3510 
 123   0.0000       2.479910        67.4818 
 124   0.0000       2.525774        68.7298 
 125   0.0000       2.577250        70.1305 
 126   0.0000       2.583901        70.3115 
 127   0.0000       2.601332        70.7858 
 128   0.0000       2.635491        71.7153 
 129   0.0000       2.669591        72.6433 
 130   0.0000       2.712601        73.8136 
 131   0.0000       2.723268        74.1039 
 132   0.0000       2.737903        74.5021 
 133   0.0000       2.755325        74.9762 
 134   0.0000       2.777467        75.5787 
 135   0.0000       2.808733        76.4295 
 136   0.0000       2.816562        76.6425 
 137   0.0000       2.865170        77.9652 
 138   0.0000       2.874694        78.2244 
 139   0.0000       2.881556        78.4111 
 140   0.0000       2.915485        79.3344 
 141   0.0000       2.926456        79.6329 
 142   0.0000       2.943331        80.0921 
 143   0.0000       2.971687        80.8637 
 144   0.0000       2.997577        81.5682 
 145   0.0000       3.009322        81.8878 
 146   0.0000       3.028550        82.4110 
 147   0.0000       3.037050        82.6423 
 148   0.0000       3.113690        84.7278 
 149   0.0000       3.145680        85.5983 
 150   0.0000       3.153707        85.8167 
 151   0.0000       3.158574        85.9492 
 152   0.0000       3.214336        87.4665 
 153   0.0000       3.244242        88.2803 
 154   0.0000       3.249498        88.4233 
 155   0.0000       3.271011        89.0087 
 156   0.0000       3.336470        90.7900 
 157   0.0000       3.388982        92.2189 
 158   0.0000       3.409460        92.7761 
 159   0.0000       3.459777        94.1453 
 160   0.0000       3.462779        94.2270 
 161   0.0000       3.471056        94.4522 
 162   0.0000       3.525651        95.9378 
 163   0.0000       3.563432        96.9659 
 164   0.0000       3.575062        97.2824 
 165   0.0000       3.627662        98.7137 
 166   0.0000       3.632342        98.8410 
 167   0.0000       3.646928        99.2380 
 168   0.0000       3.726380       101.4000 
 169   0.0000       3.733290       101.5880 
 170   0.0000       3.736517       101.6758 
 171   0.0000       3.747928       101.9863 
 172   0.0000       3.841940       104.5445 
 173   0.0000       3.863156       105.1218 
 174   0.0000       3.883677       105.6802 
 175   0.0000       3.962744       107.8318 
 176   0.0000       3.995927       108.7347 
 177   0.0000       4.047777       110.1456 
 178   0.0000       4.065157       110.6185 
 179   0.0000       4.095528       111.4450 
 180   0.0000       4.122504       112.1790 
 181   0.0000       4.127539       112.3160 
 182   0.0000       4.157158       113.1220 
 183   0.0000       4.261164       115.9522 
 184   0.0000       4.286029       116.6288 
 185   0.0000       4.361745       118.6891 
 186   0.0000       4.370039       118.9148 
 187   0.0000       4.406963       119.9196 
 188   0.0000       4.470569       121.6504 
 189   0.0000       4.609089       125.4197 
 190   0.0000       4.622317       125.7796 
 191   0.0000       4.702774       127.9690 
 192   0.0000       4.772592       129.8688 
 193   0.0000       4.789618       130.3321 
 194   0.0000       4.818115       131.1076 
 195   0.0000       4.831000       131.4582 
 196   0.0000       4.934830       134.2836 
 197   0.0000       5.072228       138.0223 
 198   0.0000       5.117823       139.2631 
 199   0.0000       5.358049       145.7999 
 200   0.0000       5.400305       146.9498 
 201   0.0000       5.512858       150.0125 
 202   0.0000       5.600845       152.4067 
 203   0.0000       5.690799       154.8545 
 204   0.0000       5.962923       162.2594 
 205   0.0000       6.150016       167.3504 
 206   0.0000       9.419010       256.3043 
 207   0.0000      11.246737       306.0393 
 208   0.0000      12.667928       344.7118 
 209   0.0000      13.502845       367.4311 

                 SPIN DOWN ORBITALS
  NO   OCC          E(Eh)            E(eV) 
   0   1.0000     -89.367895     -2431.8241 
   1   1.0000     -10.485302      -285.3196 
   2   1.0000     -10.484802      -285.3060 
   3   1.0000     -10.477339      -285.1029 
   4   1.0000     -10.477298      -285.1018 
   5   1.0000      -8.244424      -224.3422 
   6   1.0000      -6.161555      -167.6644 
   7   1.0000      -6.156954      -167.5392 
   8   1.0000      -6.145103      -167.2168 
   9   1.0000      -1.166267       -31.7357 
  10   1.0000      -0.998818       -27.1792 
  11   1.0000      -0.982807       -26.7435 
  12   1.0000      -0.806515       -21.9464 
  13   1.0000      -0.805053       -21.9066 
  14   1.0000      -0.765360       -20.8265 
  15   1.0000      -0.649277       -17.6677 
  16   1.0000      -0.637102       -17.3364 
  17   1.0000      -0.635900       -17.3037 
  18   1.0000      -0.625986       -17.0339 
  19   1.0000      -0.595098       -16.1934 
  20   1.0000      -0.481013       -13.0890 
  21   0.0000      -0.416956       -11.3460 
  22   0.0000      -0.221192        -6.0190 
  23   0.0000      -0.171873        -4.6769 
  24   0.0000      -0.153177        -4.1682 
  25   0.0000      -0.112805        -3.0696 
  26   0.0000      -0.094982        -2.5846 
  27   0.0000      -0.068756        -1.8710 
  28   0.0000      -0.057954        -1.5770 
  29   0.0000      -0.042457        -1.1553 
  30   0.0000       0.002089         0.0568 
  31   0.0000       0.011150         0.3034 
  32   0.0000       0.039674         1.0796 
  33   0.0000       0.064820         1.7638 
  34   0.0000       0.085710         2.3323 
  35   0.0000       0.099842         2.7168 
  36   0.0000       0.123789         3.3685 
  37   0.0000       0.136524         3.7150 
  38   0.0000       0.137466         3.7406 
  39   0.0000       0.143911         3.9160 
  40   0.0000       0.175961         4.7882 
  41   0.0000       0.177023         4.8170 
  42   0.0000       0.186003         5.0614 
  43   0.0000       0.194125         5.2824 
  44   0.0000       0.202885         5.5208 
  45   0.0000       0.226648         6.1674 
  46   0.0000       0.255412         6.9501 
  47   0.0000       0.255784         6.9602 
  48   0.0000       0.282118         7.6768 
  49   0.0000       0.287449         7.8219 
  50   0.0000       0.308628         8.3982 
  51   0.0000       0.332129         9.0377 
  52   0.0000       0.341670         9.2973 
  53   0.0000       0.389971        10.6117 
  54   0.0000       0.394945        10.7470 
  55   0.0000       0.412524        11.2254 
  56   0.0000       0.458493        12.4762 
  57   0.0000       0.479771        13.0552 
  58   0.0000       0.485597        13.2138 
  59   0.0000       0.510196        13.8831 
  60   0.0000       0.513023        13.9601 
  61   0.0000       0.596461        16.2305 
  62   0.0000       0.608967        16.5708 
  63   0.0000       0.617601        16.8058 
  64   0.0000       0.653488        17.7823 
  65   0.0000       0.688416        18.7327 
  66   0.0000       0.724609        19.7176 
  67   0.0000       0.751633        20.4530 
  68   0.0000       0.764689        20.8082 
  69   0.0000       0.775959        21.1149 
  70   0.0000       0.802451        21.8358 
  71   0.0000       0.841028        22.8855 
  72   0.0000       0.855669        23.2839 
  73   0.0000       0.861991        23.4560 
  74   0.0000       0.897346        24.4180 
  75   0.0000       0.936729        25.4897 
  76   0.0000       0.995361        27.0851 
  77   0.0000       1.000060        27.2130 
  78   0.0000       1.028176        27.9781 
  79   0.0000       1.034805        28.1585 
  80   0.0000       1.065655        28.9979 
  81   0.0000       1.066386        29.0178 
  82   0.0000       1.092051        29.7162 
  83   0.0000       1.119596        30.4658 
  84   0.0000       1.126440        30.6520 
  85   0.0000       1.199397        32.6372 
  86   0.0000       1.200123        32.6570 
  87   0.0000       1.208333        32.8804 
  88   0.0000       1.257081        34.2069 
  89   0.0000       1.302874        35.4530 
  90   0.0000       1.345110        36.6023 
  91   0.0000       1.345742        36.6195 
  92   0.0000       1.359972        37.0067 
  93   0.0000       1.399971        38.0951 
  94   0.0000       1.402946        38.1761 
  95   0.0000       1.460224        39.7347 
  96   0.0000       1.537885        41.8480 
  97   0.0000       1.592123        43.3239 
  98   0.0000       1.620966        44.1087 
  99   0.0000       1.649831        44.8942 
 100   0.0000       1.727924        47.0192 
 101   0.0000       1.730663        47.0937 
 102   0.0000       1.733994        47.1844 
 103   0.0000       1.741902        47.3996 
 104   0.0000       1.770927        48.1894 
 105   0.0000       1.832412        49.8625 
 106   0.0000       1.888320        51.3838 
 107   0.0000       1.917094        52.1668 
 108   0.0000       1.973953        53.7140 
 109   0.0000       2.007827        54.6357 
 110   0.0000       2.029864        55.2354 
 111   0.0000       2.032761        55.3142 
 112   0.0000       2.062213        56.1157 
 113   0.0000       2.173586        59.1463 
 114   0.0000       2.208111        60.0857 
 115   0.0000       2.225929        60.5706 
 116   0.0000       2.238005        60.8992 
 117   0.0000       2.247529        61.1584 
 118   0.0000       2.325952        63.2924 
 119   0.0000       2.346826        63.8604 
 120   0.0000       2.416260        65.7498 
 121   0.0000       2.438588        66.3574 
 122   0.0000       2.449363        66.6506 
 123   0.0000       2.480691        67.5030 
 124   0.0000       2.526729        68.7558 
 125   0.0000       2.579054        70.1796 
 126   0.0000       2.585405        70.3524 
 127   0.0000       2.611402        71.0599 
 128   0.0000       2.651904        72.1620 
 129   0.0000       2.681382        72.9641 
 130   0.0000       2.715180        73.8838 
 131   0.0000       2.726395        74.1890 
 132   0.0000       2.740961        74.5853 
 133   0.0000       2.759879        75.1001 
 134   0.0000       2.778024        75.5939 
 135   0.0000       2.810008        76.4642 
 136   0.0000       2.818181        76.6866 
 137   0.0000       2.870114        78.0998 
 138   0.0000       2.884988        78.5045 
 139   0.0000       2.893611        78.7391 
 140   0.0000       2.926567        79.6359 
 141   0.0000       2.927576        79.6634 
 142   0.0000       2.943681        80.1016 
 143   0.0000       2.973644        80.9170 
 144   0.0000       3.004532        81.7575 
 145   0.0000       3.010890        81.9305 
 146   0.0000       3.033011        82.5324 
 147   0.0000       3.041986        82.7767 
 148   0.0000       3.114651        84.7540 
 149   0.0000       3.146380        85.6174 
 150   0.0000       3.156367        85.8891 
 151   0.0000       3.167727        86.1982 
 152   0.0000       3.221065        87.6496 
 153   0.0000       3.245120        88.3042 
 154   0.0000       3.255054        88.5745 
 155   0.0000       3.277621        89.1886 
 156   0.0000       3.339475        90.8717 
 157   0.0000       3.392847        92.3241 
 158   0.0000       3.411970        92.8444 
 159   0.0000       3.465629        94.3046 
 160   0.0000       3.467106        94.3447 
 161   0.0000       3.471796        94.4724 
 162   0.0000       3.528460        96.0143 
 163   0.0000       3.565408        97.0197 
 164   0.0000       3.578278        97.3699 
 165   0.0000       3.631878        98.8284 
 166   0.0000       3.633313        98.8675 
 167   0.0000       3.654770        99.4513 
 168   0.0000       3.726485       101.4028 
 169   0.0000       3.733555       101.5952 
 170   0.0000       3.739109       101.7463 
 171   0.0000       3.748322       101.9970 
 172   0.0000       3.843720       104.5929 
 173   0.0000       3.863662       105.1356 
 174   0.0000       3.885290       105.7241 
 175   0.0000       3.970379       108.0395 
 176   0.0000       4.000077       108.8476 
 177   0.0000       4.050103       110.2089 
 178   0.0000       4.065793       110.6358 
 179   0.0000       4.114386       111.9581 
 180   0.0000       4.124294       112.2277 
 181   0.0000       4.134485       112.5051 
 182   0.0000       4.161023       113.2272 
 183   0.0000       4.262657       115.9928 
 184   0.0000       4.290426       116.7484 
 185   0.0000       4.362734       118.7160 
 186   0.0000       4.371252       118.9478 
 187   0.0000       4.418340       120.2291 
 188   0.0000       4.477207       121.8310 
 189   0.0000       4.610614       125.4612 
 190   0.0000       4.623320       125.8069 
 191   0.0000       4.704054       128.0038 
 192   0.0000       4.773185       129.8850 
 193   0.0000       4.791394       130.3805 
 194   0.0000       4.818688       131.1232 
 195   0.0000       4.832234       131.4918 
 196   0.0000       4.934877       134.2848 
 197   0.0000       5.072619       138.0330 
 198   0.0000       5.125774       139.4794 
 199   0.0000       5.358996       145.8257 
 200   0.0000       5.402970       147.0223 
 201   0.0000       5.514039       150.0446 
 202   0.0000       5.604042       152.4937 
 203   0.0000       5.693659       154.9324 
 204   0.0000       5.964376       162.2989 
 205   0.0000       6.151829       167.3998 
 206   0.0000       9.421062       256.3601 
 207   0.0000      11.247956       306.0724 
 208   0.0000      12.671770       344.8164 
 209   0.0000      13.509489       367.6119 

                    ********************************
                    * MULLIKEN POPULATION ANALYSIS *
                    ********************************

--------------------------------------------
MULLIKEN ATOMIC CHARGES AND SPIN POPULATIONS
--------------------------------------------
   0 C :    0.007466    0.365899
   1 C :   -0.161374   -0.139859
   2 S :    0.487301    0.562947
   3 C :   -0.161064   -0.139782
   4 C :    0.007304    0.365136
   5 H :    0.200451   -0.009063
   6 H :    0.209873    0.001885
   7 H :    0.209707    0.001889
   8 H :    0.200335   -0.009052
Sum of atomic charges         :    1.0000000
Sum of atomic spin populations:    1.0000000

-----------------------------------------------------
MULLIKEN REDUCED ORBITAL CHARGES AND SPIN POPULATIONS
-----------------------------------------------------
CHARGE
  0 C s       :     3.258179  s :     3.258179
      pz      :     0.817421  p :     2.622819
      px      :     0.972403
      py      :     0.832994
      dz2     :     0.018946  d :     0.102607
      dxz     :     0.025915
      dyz     :     0.009682
      dx2y2   :     0.019924
      dxy     :     0.028141
      f0      :     0.000864  f :     0.008929
      f+1     :     0.000988
      f-1     :     0.001011
      f+2     :     0.001424
      f-2     :     0.001541
      f+3     :     0.001718
      f-3     :     0.001384
  1 C s       :     3.221411  s :     3.221411
      pz      :     1.004725  p :     2.839764
      px      :     0.839690
      py      :     0.995350
      dz2     :     0.014605  d :     0.091786
      dxz     :     0.022741
      dyz     :     0.009826
      dx2y2   :     0.019535
      dxy     :     0.025079
      f0      :     0.000669  f :     0.008413
      f+1     :     0.001030
      f-1     :     0.001035
      f+2     :     0.001603
      f-2     :     0.001359
      f+3     :     0.001503
      f-3     :     0.001214
  2 S s       :     5.832845  s :     5.832845
      pz      :     3.059214  p :     9.429786
      px      :     3.328167
      py      :     3.042406
      dz2     :     0.056520  d :     0.227746
      dxz     :     0.047401
      dyz     :     0.030570
      dx2y2   :     0.040778
      dxy     :     0.052477
      f0      :     0.001574  f :     0.022321
      f+1     :     0.004770
      f-1     :     0.001585
      f+2     :     0.003019
      f-2     :     0.003440
      f+3     :     0.004413
      f-3     :     0.003522
  3 C s       :     3.221144  s :     3.221144
      pz      :     1.003975  p :     2.839807
      px      :     0.840605
      py      :     0.995227
      dz2     :     0.014534  d :     0.091704
      dxz     :     0.022883
      dyz     :     0.009757
      dx2y2   :     0.019381
      dxy     :     0.025149
      f0      :     0.000674  f :     0.008410
      f+1     :     0.001021
      f-1     :     0.001036
      f+2     :     0.001611
      f-2     :     0.001353
      f+3     :     0.001497
      f-3     :     0.001218
  4 C s       :     3.258220  s :     3.258220
      pz      :     0.817915  p :     2.623010
      px      :     0.971821
      py      :     0.833274
      dz2     :     0.018768  d :     0.102539
      dxz     :     0.026097
      dyz     :     0.009650
      dx2y2   :     0.019821
      dxy     :     0.028204
      f0      :     0.000875  f :     0.008928
      f+1     :     0.000970
      f-1     :     0.001013
      f+2     :     0.001432
      f-2     :     0.001534
      f+3     :     0.001715
      f-3     :     0.001390
  5 H s       :     0.764784  s :     0.764784
      pz      :     0.010016  p :     0.032457
      px      :     0.012051
      py      :     0.010389
      dz2     :     0.000302  d :     0.002308
      dxz     :     0.000484
      dyz     :     0.000313
      dx2y2   :     0.000706
      dxy     :     0.000503
  6 H s       :     0.751521  s :     0.751521
      pz      :     0.014408  p :     0.036218
      px      :     0.007667
      py      :     0.014143
      dz2     :     0.000612  d :     0.002388
      dxz     :     0.000393
      dyz     :     0.000453
      dx2y2   :     0.000462
      dxy     :     0.000468
  7 H s       :     0.751662  s :     0.751662
      pz      :     0.014425  p :     0.036243
      px      :     0.007664
      py      :     0.014154
      dz2     :     0.000611  d :     0.002389
      dxz     :     0.000390
      dyz     :     0.000455
      dx2y2   :     0.000467
      dxy     :     0.000465
  8 H s       :     0.764885  s :     0.764885
      pz      :     0.010043  p :     0.032472
      px      :     0.012024
      py      :     0.010405
      dz2     :     0.000306  d :     0.002307
      dxz     :     0.000480
      dyz     :     0.000316
      dx2y2   :     0.000706
      dxy     :     0.000499

SPIN
  0 C s       :     0.013289  s :     0.013289
      pz      :     0.186452  p :     0.348786
      px      :     0.012860
      py      :     0.149475
      dz2     :     0.004490  d :     0.004384
      dxz     :    -0.000480
      dyz     :    -0.000938
      dx2y2   :     0.001515
      dxy     :    -0.000202
      f0      :     0.000001  f :    -0.000561
      f+1     :    -0.000074
      f-1     :     0.000051
      f+2     :    -0.000255
      f-2     :    -0.000192
      f+3     :    -0.000062
      f-3     :    -0.000030
  1 C s       :    -0.010167  s :    -0.010167
      pz      :    -0.069933  p :    -0.142538
      px      :    -0.014400
      py      :    -0.058205
      dz2     :    -0.000716  d :     0.011689
      dxz     :     0.007271
      dyz     :     0.000044
      dx2y2   :    -0.000501
      dxy     :     0.005591
      f0      :     0.000082  f :     0.001157
      f+1     :     0.000426
      f-1     :     0.000055
      f+2     :     0.000137
      f-2     :     0.000068
      f+3     :     0.000269
      f-3     :     0.000120
  2 S s       :     0.021227  s :     0.021227
      pz      :     0.304182  p :     0.548018
      px      :    -0.002108
      py      :     0.245943
      dz2     :    -0.001161  d :    -0.004087
      dxz     :    -0.002495
      dyz     :     0.001822
      dx2y2   :    -0.000163
      dxy     :    -0.002090
      f0      :    -0.000355  f :    -0.002210
      f+1     :    -0.000135
      f-1     :    -0.000554
      f+2     :    -0.000363
      f-2     :    -0.000621
      f+3     :     0.000026
      f-3     :    -0.000208
  3 C s       :    -0.010146  s :    -0.010146
      pz      :    -0.069913  p :    -0.142472
      px      :    -0.014363
      py      :    -0.058195
      dz2     :    -0.000695  d :     0.011680
      dxz     :     0.007254
      dyz     :     0.000045
      dx2y2   :    -0.000501
      dxy     :     0.005577
      f0      :     0.000085  f :     0.001156
      f+1     :     0.000421
      f-1     :     0.000055
      f+2     :     0.000137
      f-2     :     0.000068
      f+3     :     0.000269
      f-3     :     0.000120
  4 C s       :     0.013250  s :     0.013250
      pz      :     0.186167  p :     0.348055
      px      :     0.012788
      py      :     0.149100
      dz2     :     0.004490  d :     0.004390
      dxz     :    -0.000472
      dyz     :    -0.000940
      dx2y2   :     0.001513
      dxy     :    -0.000201
      f0      :     0.000001  f :    -0.000559
      f+1     :    -0.000073
      f-1     :     0.000052
      f+2     :    -0.000255
      f-2     :    -0.000192
      f+3     :    -0.000062
      f-3     :    -0.000030
  5 H s       :    -0.013956  s :    -0.013956
      pz      :     0.002156  p :     0.004522
      px      :     0.000666
      py      :     0.001699
      dz2     :     0.000086  d :     0.000372
      dxz     :     0.000131
      dyz     :     0.000000
      dx2y2   :     0.000043
      dxy     :     0.000111
  6 H s       :     0.004095  s :     0.004095
      pz      :    -0.001083  p :    -0.002082
      px      :    -0.000105
      py      :    -0.000894
      dz2     :    -0.000072  d :    -0.000128
      dxz     :    -0.000006
      dyz     :    -0.000010
      dx2y2   :    -0.000032
      dxy     :    -0.000007
  7 H s       :     0.004097  s :     0.004097
      pz      :    -0.001082  p :    -0.002081
      px      :    -0.000105
      py      :    -0.000895
      dz2     :    -0.000072  d :    -0.000128
      dxz     :    -0.000006
      dyz     :    -0.000010
      dx2y2   :    -0.000032
      dxy     :    -0.000007
  8 H s       :    -0.013934  s :    -0.013934
      pz      :     0.002156  p :     0.004512
      px      :     0.000660
      py      :     0.001696
      dz2     :     0.000088  d :     0.000371
      dxz     :     0.000130
      dyz     :     0.000000
      dx2y2   :     0.000043
      dxy     :     0.000111


                     *******************************
                     * LOEWDIN POPULATION ANALYSIS *
                     *******************************

-------------------------------------------
LOEWDIN ATOMIC CHARGES AND SPIN POPULATIONS
-------------------------------------------
   0 C :    0.135584    0.292271
   1 C :   -0.131912   -0.035452
   2 S :    0.994562    0.472306
   3 C :   -0.131928   -0.035429
   4 C :    0.135463    0.291770
   5 H :    0.014511    0.013513
   6 H :   -0.015377   -0.006233
   7 H :   -0.015388   -0.006229
   8 H :    0.014485    0.013482

----------------------------------------------------
LOEWDIN REDUCED ORBITAL CHARGES AND SPIN POPULATIONS
----------------------------------------------------
CHARGE
  0 C s       :     2.717137  s :     2.717137
      pz      :     0.812366  p :     2.674294
      px      :     1.014577
      py      :     0.847351
      dz2     :     0.068519  d :     0.423955
      dxz     :     0.093665
      dyz     :     0.054972
      dx2y2   :     0.100253
      dxy     :     0.106546
      f0      :     0.005528  f :     0.049030
      f+1     :     0.006216
      f-1     :     0.004479
      f+2     :     0.006105
      f-2     :     0.008503
      f+3     :     0.010438
      f-3     :     0.007761
  1 C s       :     2.754933  s :     2.754933
      pz      :     0.955520  p :     2.929090
      px      :     1.011231
      py      :     0.962339
      dz2     :     0.049432  d :     0.405121
      dxz     :     0.098448
      dyz     :     0.049471
      dx2y2   :     0.096484
      dxy     :     0.111286
      f0      :     0.003840  f :     0.042768
      f+1     :     0.006524
      f-1     :     0.002627
      f+2     :     0.005890
      f-2     :     0.007492
      f+3     :     0.008913
      f-3     :     0.007481
  2 S s       :     5.276060  s :     5.276060
      pz      :     2.983586  p :     9.269073
      px      :     3.311248
      py      :     2.974240
      dz2     :     0.093190  d :     0.391342
      dxz     :     0.072862
      dyz     :     0.064148
      dx2y2   :     0.077236
      dxy     :     0.083906
      f0      :     0.004537  f :     0.068962
      f+1     :     0.014223
      f-1     :     0.003818
      f+2     :     0.009373
      f-2     :     0.011132
      f+3     :     0.013859
      f-3     :     0.012020
  3 C s       :     2.754930  s :     2.754930
      pz      :     0.955190  p :     2.929068
      px      :     1.011648
      py      :     0.962231
      dz2     :     0.049357  d :     0.405161
      dxz     :     0.098886
      dyz     :     0.049357
      dx2y2   :     0.096054
      dxy     :     0.111507
      f0      :     0.003874  f :     0.042769
      f+1     :     0.006475
      f-1     :     0.002650
      f+2     :     0.005933
      f-2     :     0.007449
      f+3     :     0.008876
      f-3     :     0.007513
  4 C s       :     2.717121  s :     2.717121
      pz      :     0.812413  p :     2.674558
      px      :     1.014617
      py      :     0.847528
      dz2     :     0.068003  d :     0.423831
      dxz     :     0.094062
      dyz     :     0.054875
      dx2y2   :     0.100184
      dxy     :     0.106707
      f0      :     0.005588  f :     0.049026
      f+1     :     0.006122
      f-1     :     0.004496
      f+2     :     0.006138
      f-2     :     0.008454
      f+3     :     0.010428
      f-3     :     0.007801
  5 H s       :     0.804363  s :     0.804363
      pz      :     0.040373  p :     0.153078
      px      :     0.069973
      py      :     0.042732
      dz2     :     0.003627  d :     0.028049
      dxz     :     0.006849
      dyz     :     0.002801
      dx2y2   :     0.007438
      dxy     :     0.007334
  6 H s       :     0.815900  s :     0.815900
      pz      :     0.064580  p :     0.169357
      px      :     0.035596
      py      :     0.069181
      dz2     :     0.007155  d :     0.030119
      dxz     :     0.004086
      dyz     :     0.008411
      dx2y2   :     0.005517
      dxy     :     0.004950
  7 H s       :     0.815919  s :     0.815919
      pz      :     0.064457  p :     0.169351
      px      :     0.035746
      py      :     0.069148
      dz2     :     0.007129  d :     0.030118
      dxz     :     0.004097
      dyz     :     0.008385
      dx2y2   :     0.005536
      dxy     :     0.004970
  8 H s       :     0.804373  s :     0.804373
      pz      :     0.040581  p :     0.153091
      px      :     0.069700
      py      :     0.042810
      dz2     :     0.003648  d :     0.028051
      dxz     :     0.006846
      dyz     :     0.002844
      dx2y2   :     0.007408
      dxy     :     0.007304

SPIN
  0 C s       :     0.006525  s :     0.006525
      pz      :     0.151005  p :     0.275843
      px      :     0.004605
      py      :     0.120233
      dz2     :     0.012421  d :     0.009384
      dxz     :    -0.003586
      dyz     :    -0.000552
      dx2y2   :     0.004058
      dxy     :    -0.002958
      f0      :     0.000713  f :     0.000520
      f+1     :    -0.000212
      f-1     :     0.000704
      f+2     :    -0.000589
      f-2     :    -0.000135
      f+3     :    -0.000156
      f-3     :     0.000195
  1 C s       :    -0.003817  s :    -0.003817
      pz      :    -0.046182  p :    -0.090475
      px      :    -0.006704
      py      :    -0.037589
      dz2     :     0.002947  d :     0.052306
      dxz     :     0.026173
      dyz     :     0.000599
      dx2y2   :     0.001540
      dxy     :     0.021047
      f0      :     0.000428  f :     0.006533
      f+1     :     0.002761
      f-1     :     0.000249
      f+2     :     0.000581
      f-2     :     0.000118
      f+3     :     0.001682
      f-3     :     0.000715
  2 S s       :     0.007310  s :     0.007310
      pz      :     0.266372  p :     0.477456
      px      :    -0.003188
      py      :     0.214272
      dz2     :    -0.004989  d :    -0.009200
      dxz     :    -0.002435
      dyz     :     0.002923
      dx2y2   :    -0.002318
      dxy     :    -0.002380
      f0      :    -0.000401  f :    -0.003260
      f+1     :    -0.000886
      f-1     :    -0.000360
      f+2     :    -0.000149
      f-2     :    -0.000714
      f+3     :    -0.000443
      f-3     :    -0.000307
  3 C s       :    -0.003814  s :    -0.003814
      pz      :    -0.046166  p :    -0.090423
      px      :    -0.006677
      py      :    -0.037580
      dz2     :     0.003070  d :     0.052280
      dxz     :     0.026083
      dyz     :     0.000596
      dx2y2   :     0.001519
      dxy     :     0.021012
      f0      :     0.000457  f :     0.006529
      f+1     :     0.002724
      f-1     :     0.000251
      f+2     :     0.000584
      f-2     :     0.000119
      f+3     :     0.001678
      f-3     :     0.000716
  4 C s       :     0.006512  s :     0.006512
      pz      :     0.150763  p :     0.275286
      px      :     0.004598
      py      :     0.119925
      dz2     :     0.012438  d :     0.009444
      dxz     :    -0.003566
      dyz     :    -0.000550
      dx2y2   :     0.004074
      dxy     :    -0.002953
      f0      :     0.000712  f :     0.000529
      f+1     :    -0.000202
      f-1     :     0.000708
      f+2     :    -0.000591
      f-2     :    -0.000136
      f+3     :    -0.000158
      f-3     :     0.000196
  5 H s       :    -0.006918  s :    -0.006918
      pz      :     0.008547  p :     0.016766
      px      :     0.001317
      py      :     0.006903
      dz2     :     0.000869  d :     0.003665
      dxz     :     0.001358
      dyz     :    -0.000001
      dx2y2   :     0.000325
      dxy     :     0.001114
  6 H s       :     0.001677  s :     0.001677
      pz      :    -0.003284  p :    -0.006537
      px      :    -0.000493
      py      :    -0.002760
      dz2     :    -0.000841  d :    -0.001373
      dxz     :    -0.000079
      dyz     :    -0.000042
      dx2y2   :    -0.000321
      dxy     :    -0.000090
  7 H s       :     0.001675  s :     0.001675
      pz      :    -0.003280  p :    -0.006532
      px      :    -0.000494
      py      :    -0.002758
      dz2     :    -0.000837  d :    -0.001372
      dxz     :    -0.000081
      dyz     :    -0.000042
      dx2y2   :    -0.000322
      dxy     :    -0.000090
  8 H s       :    -0.006908  s :    -0.006908
      pz      :     0.008540  p :     0.016732
      px      :     0.001305
      py      :     0.006888
      dz2     :     0.000889  d :     0.003658
      dxz     :     0.001341
      dyz     :    -0.000002
      dx2y2   :     0.000320
      dxy     :     0.001109


                      *****************************
                      * MAYER POPULATION ANALYSIS *
                      *****************************

  NA   - Mulliken gross atomic population
  ZA   - Total nuclear charge
  QA   - Mulliken gross atomic charge
  VA   - Mayer's total valence
  BVA  - Mayer's bonded valence
  FA   - Mayer's free valence

  ATOM       NA         ZA         QA         VA         BVA        FA
  0 C      5.9925     6.0000     0.0075     3.8136     3.6998     0.1138
  1 C      6.1614     6.0000    -0.1614     3.8407     3.8267     0.0140
  2 S     15.5127    16.0000     0.4873     3.1022     2.8138     0.2884
  3 C      6.1611     6.0000    -0.1611     3.8407     3.8267     0.0140
  4 C      5.9927     6.0000     0.0073     3.8140     3.7007     0.1133
  5 H      0.7995     1.0000     0.2005     0.9745     0.9743     0.0002
  6 H      0.7901     1.0000     0.2099     0.9736     0.9736     0.0000
  7 H      0.7903     1.0000     0.2097     0.9737     0.9737     0.0000
  8 H      0.7997     1.0000     0.2003     0.9746     0.9743     0.0002

  Mayer bond orders larger than 0.1
B(  0-C ,  1-C ) :   1.5129 B(  0-C ,  2-S ) :   0.1365 B(  0-C ,  4-C ) :   1.0824 
B(  0-C ,  5-H ) :   0.9356 B(  1-C ,  2-S ) :   1.2436 B(  1-C ,  6-H ) :   0.9313 
B(  2-S ,  3-C ) :   1.2429 B(  2-S ,  4-C ) :   0.1363 B(  3-C ,  4-C ) :   1.5137 
B(  3-C ,  7-H ) :   0.9313 B(  4-C ,  8-H ) :   0.9356 

-------
TIMINGS
-------

Total SCF time: 0 days 0 hours 0 min 7 sec 

Total time                  ....       7.667 sec
Sum of individual times     ....       7.588 sec  ( 99.0%)

Fock matrix formation       ....       6.656 sec  ( 86.8%)
  XC integration            ....       2.075 sec  ( 31.2% of F)
    Basis function eval.    ....       0.276 sec  ( 13.3% of XC)
    Density eval.           ....       0.408 sec  ( 19.7% of XC)
    XC-Functional eval.     ....       0.034 sec  (  1.6% of XC)
    XC-Potential eval.      ....       1.276 sec  ( 61.5% of XC)
Diagonalization             ....       0.254 sec  (  3.3%)
Density matrix formation    ....       0.008 sec  (  0.1%)
Population analysis         ....       0.031 sec  (  0.4%)
Initial guess               ....       0.166 sec  (  2.2%)
Orbital Transformation      ....       0.000 sec  (  0.0%)
Orbital Orthonormalization  ....       0.000 sec  (  0.0%)
DIIS solution               ....       0.065 sec  (  0.9%)
Grid generation             ....       0.408 sec  (  5.3%)

-------------------------   --------------------
FINAL SINGLE POINT ENERGY      -551.861479150080
-------------------------   --------------------


                            ***************************************
                            *     ORCA property calculations      *
                            ***************************************

                                    ---------------------
                                    Active property flags
                                    ---------------------
   (+) Dipole Moment


------------------------------------------------------------------------------
                       ORCA ELECTRIC PROPERTIES CALCULATION
------------------------------------------------------------------------------

Dipole Moment Calculation                       ... on
Quadrupole Moment Calculation                   ... off
Polarizability Calculation                      ... off
GBWName                                         ... system.gbw
Electron density file                           ... system.scfp.tmp
The origin for moment calculation is the CENTER OF MASS  = (19.750561, 19.480156 19.505000)

-------------
DIPOLE MOMENT
-------------
                                X             Y             Z
Electronic contribution:     -3.13037       0.00237      -0.01018
Nuclear contribution   :      3.63917      -0.00258       0.01150
                        -----------------------------------------
Total Dipole Moment    :      0.50880      -0.00021       0.00131
                        -----------------------------------------
Magnitude (a.u.)       :      0.50880
Magnitude (Debye)      :      1.29326


Timings for individual modules:

Sum of individual times         ...        8.171 sec (=   0.136 min)
GTO integral calculation        ...        0.444 sec (=   0.007 min)   5.4 %
SCF iterations                  ...        7.728 sec (=   0.129 min)  94.6 %
                             ****ORCA TERMINATED NORMALLY****
TOTAL RUN TIME: 0 days 0 hours 0 minutes 8 seconds 368 msec
