ITEM: TIMESTEP
0
ITEM: NUMBER OF ATOMS
216
ITEM: BOX BOUNDS pp pp pp
0 1.862060
0 1.862060
0 1.862060
ITEM: ATOMS id type x y z
1 0 0.195494 0.677871 0.191817
2 0 0.202473 0.262581 1.018160
3 0 1.817868 0.388988 0.649155
4 0 0.567883 1.315235 1.197842
5 0 1.614894 1.522408 0.678555
6 0 1.758145 0.600822 0.856423
7 0 1.126622 0.733882 0.690225
8 0 1.780935 0.575083 0.195767
9 0 0.700826 1.132764 1.037492
10 0 0.878155 0.767510 0.007458
11 0 0.715252 0.955168 0.670843
12 0 0.718380 1.178024 1.848898
13 0 0.349419 1.376714 1.048352
14 0 1.476755 1.542030 1.444728
15 0 0.447289 0.387170 1.486002
16 0 1.562756 0.408839 0.779269
17 0 0.265427 1.742429 0.442458
18 0 1.148177 1.344947 1.653568
19 0 0.245329 1.468256 0.518659
20 0 0.313216 1.067803 0.888208
21 0 0.574591 1.784246 1.466487
22 0 0.553084 1.068765 0.176902
23 0 1.539973 0.168351 1.443026
24 0 0.113141 0.672836 0.586582
25 0 0.010722 1.745692 0.314496
26 0 0.025192 1.588391 0.087226
27 0 1.726766 0.935068 0.647393
28 0 1.676265 1.129339 0.437866
29 0 0.080787 0.801702 1.574857
30 0 0.626299 1.388085 0.723830
31 0 1.308372 1.238711 1.384231
32 0 0.827469 0.019759 0.551227
33 0 0.186104 0.948197 1.300882
34 0 1.546577 1.037997 0.206561
35 0 1.222841 1.817026 1.622985
36 0 0.361575 0.221807 1.820934
37 0 1.431964 1.445585 0.897467
38 0 1.705442 1.839299 0.583970
39 0 0.588062 0.723638 0.286703
40 0 1.275286 0.380710 0.956215
41 0 1.612764 1.647386 0.345945
42 0 0.805108 0.596282 1.468601
43 0 1.419056 0.482485 1.667633
44 0 0.941758 0.852735 1.612443
45 0 1.005945 0.392457 1.186117
46 0 1.044667 0.720594 0.427052
47 0 0.076971 0.792233 0.839152
48 0 0.079111 0.009844 1.589592
49 0 0.862199 0.345342 0.228257
50 0 1.674934 0.574385 1.807095
51 0 1.399838 1.155799 0.485618
52 0 0.561987 0.162513 0.982617
53 0 1.002382 1.466947 0.485717
54 0 0.360916 1.808870 0.931621
55 0 1.783530 1.039784 0.894788
56 0 1.202534 1.570410 1.484811
57 0 0.292640 0.914381 0.265130
58 0 1.489672 0.785869 0.747507
59 0 0.474028 1.283049 1.743093
60 0 1.126423 1.788004 0.196599
61 0 0.212279 0.271031 1.543404
62 0 1.622140 1.354204 0.102354
63 0 0.507629 1.786014 0.292020
64 0 1.426592 0.072926 0.457885
65 0 0.265016 1.803985 1.187116
66 0 0.990709 1.682410 0.876758
67 0 0.383956 0.657533 0.469800
68 0 1.512327 0.238359 1.750179
69 0 0.654060 0.138378 0.077498
70 0 0.794591 0.260591 1.736890
71 0 0.870428 1.520845 1.173517
72 0 1.323742 0.603715 1.434860
73 0 0.806757 1.336454 0.905300
74 0 0.940796 0.490222 0.878270
75 0 0.577258 0.087309 0.498449
76 0 1.393364 1.214497 0.040445
77 0 0.303153 0.056343 0.171759
78 0 0.984488 0.266865 0.455884
79 0 1.063647 0.688434 1.438656
80 0 1.228422 1.594127 0.776065
81 0 0.504267 1.121315 0.695156
82 0 1.235431 1.821303 0.626798
83 0 1.035330 0.513673 0.033617
84 0 0.109556 0.600059 1.371919
85 0 0.546528 0.215644 1.229447
86 0 0.854384 0.447077 0.638491
87 0 1.011053 0.071850 0.740571
88 0 1.423708 1.171583 0.818719
89 0 1.430234 0.619202 0.950146
90 0 1.815297 0.776397 0.388391
91 0 0.491378 1.403681 0.163371
92 0 1.746094 1.269754 0.651236
93 0 1.338237 0.545620 0.092864
94 0 0.530943 0.287137 0.282855
95 0 1.726719 1.268754 1.530056
96 0 1.010999 1.335302 1.358697
97 0 1.603827 1.640635 1.694237
98 0 1.150374 1.289108 1.127513
99 0 1.565809 1.098654 1.062616
100 0 0.916974 0.103256 1.349449
101 0 0.978719 1.144603 1.682720
102 0 0.715844 0.997145 0.409222
103 0 0.439133 0.829183 1.262321
104 0 1.251298 0.374195 1.309240
105 0 0.076806 1.577008 1.346775
106 0 0.319478 1.095457 0.448107
107 0 0.538898 0.508274 0.862237
108 0 1.243115 1.354417 0.430155
109 0 1.355521 1.471651 1.167460
110 0 1.502733 0.644388 0.476040
111 0 0.350037 1.539632 1.275894
112 0 0.461239 0.665926 1.603343
113 0 1.643929 0.795328 1.663408
114 0 1.044089 0.126498 1.747102
115 0 0.474905 1.842199 1.773941
116 0 0.587725 0.866492 1.040469
117 0 1.258722 0.875136 0.963765
118 0 1.153379 0.519458 0.284066
119 0 0.268405 0.191267 1.287415
120 0 0.028405 1.318435 1.245978
121 0 0.727925 0.606943 1.035387
122 0 1.755399 0.946816 0.008959
123 0 0.348302 0.037190 0.664350
124 0 1.614538 0.440075 0.366726
125 0 1.028775 0.726517 0.960723
126 0 0.995588 1.581310 1.734914
127 0 1.827422 1.535858 1.598347
128 0 0.354856 0.865488 1.762798
129 0 1.482375 0.317691 0.144276
130 0 1.296294 0.801506 1.855614
131 0 1.071755 1.359704 0.833839
132 0 0.344550 0.790693 0.942323
133 0 0.313914 0.500757 0.992760
134 0 0.469310 0.458843 1.796861
135 0 1.170016 0.376540 1.697883
136 0 1.145721 0.198546 1.470445
137 0 0.011163 1.266582 0.207692
138 0 0.056280 1.742819 0.955523
139 0 0.490164 1.564323 0.886400
140 0 0.935932 0.768576 1.209696
141 0 0.025071 0.541176 1.117299
142 0 0.195846 0.627205 1.776739
143 0 1.393862 0.913180 1.625638
144 0 0.815389 0.583163 0.358231
145 0 1.612414 0.591861 1.154463
146 0 0.231607 1.509971 1.725164
147 0 0.747306 0.433763 1.244412
148 0 0.913538 1.701779 1.487854
149 0 0.428805 0.541722 0.190932
150 0 0.111991 1.136498 1.481802
151 0 1.235410 1.035500 1.175756
152 0 1.358774 0.810292 0.303414
153 0 1.775724 1.682050 1.172100
154 0 1.252932 1.707069 1.070754
155 0 0.114248 1.209947 0.995008
156 0 0.761352 1.673376 1.802714
157 0 0.913588 0.077282 0.118519
158 0 1.766188 0.209479 0.446899
159 0 1.410879 1.553350 0.506835
160 0 0.162112 1.779385 1.840139
161 0 1.297067 0.940799 0.604382
162 0 0.739575 1.287463 1.437256
163 0 0.675897 1.600683 0.179505
164 0 1.619338 1.768880 1.396005
165 0 1.840848 0.121084 0.994109
166 0 0.201980 0.271190 0.692726
167 0 1.198002 1.557056 0.058123
168 0 0.845139 1.030070 1.411072
169 0 0.947167 0.938474 0.272758
170 0 1.491897 1.611316 0.101116
171 0 0.344573 1.304867 1.503323
172 0 1.591770 1.304701 1.265403
173 0 1.127852 1.095159 0.765387
174 0 0.996288 0.242687 0.949635
175 0 0.628406 1.470397 0.460332
176 0 1.764705 0.388976 1.401068
177 0 0.245852 1.327249 0.296688
178 0 0.131227 1.036250 1.725763
179 0 0.689658 0.183034 1.461549
180 0 0.108336 0.354748 1.788921
181 0 1.384151 0.869899 1.362477
182 0 0.055359 0.167411 0.206871
183 0 1.165090 1.291505 0.158993
184 0 0.660827 0.815866 1.432947
185 0 1.503761 1.821664 1.082678
186 0 0.728955 0.559654 1.739857
187 0 1.457881 1.197133 1.611050
188 0 0.306492 1.715729 1.563784
189 0 1.606302 0.865813 1.226128
190 0 1.262736 0.319408 0.462171
191 0 0.613572 0.680656 0.636970
192 0 1.748399 0.316701 1.651147
193 0 1.742314 0.937561 1.457850
194 0 0.874035 1.355955 0.105766
195 0 0.659329 1.770589 0.877021
196 0 1.448446 1.837558 1.793852
197 0 0.902183 0.946517 0.885507
198 0 1.107521 0.979205 0.040352
199 0 1.835928 1.520557 0.846392
200 0 0.177555 1.267372 1.853949
201 0 0.144242 1.199323 0.651458
202 0 0.683833 1.474311 1.632222
203 0 1.810736 0.158917 1.262232
204 0 0.417944 0.395357 0.533525
205 0 1.654121 1.467617 1.052550
206 0 0.375550 0.561109 1.283095
207 0 0.823085 1.613802 0.644253
208 0 1.417051 0.231596 1.136941
209 0 1.013523 1.849324 1.103446
210 0 0.807398 1.271090 0.360556
211 0 0.620229 1.579517 1.284755
212 0 1.366577 0.056559 0.199947
213 0 1.279591 0.480770 0.692568
214 0 1.594847 0.184879 0.933366
215 0 0.041451 1.017562 0.322212
216 0 0.867969 1.682532 0.340572
