ITEM: TIMESTEP
0
ITEM: NUMBER OF ATOMS
648
ITEM: BOX BOUNDS pp pp pp
0 1.862060
0 1.862060
0 1.862060
ITEM: ATOMS id type x y z fx fy fz
1 0 0.200357 0.678738 0.195910 953.995239 223.345749 921.486389
2 1 0.105353 0.661520 0.221943 -756.288879 -341.795105 -296.856659
3 1 0.207829 0.680355 0.096203 -418.635712 -253.443115 -898.095825
4 0 0.205671 0.266902 1.014660 1281.963745 998.918945 -857.434998
5 1 0.237372 0.227665 1.101006 -125.088852 -336.136993 797.952759
6 1 0.116403 0.228355 0.991311 -961.704346 -742.014587 170.461411
7 0 1.823888 0.391201 0.649256 1204.963867 401.235016 332.013916
8 1 1.750876 0.419630 0.711393 -478.913818 42.666084 141.680023
9 1 1.788536 0.322933 0.585304 -400.791412 -545.300598 -675.708801
10 0 0.571624 1.310166 1.199050 1097.260132 -1105.295898 616.611633
11 1 0.495442 1.311574 1.134285 -869.088318 395.290741 -399.830688
12 1 0.580464 1.400004 1.242073 -144.176697 840.811829 -60.427193
13 0 1.621280 1.522166 0.677994 1839.873047 9.295746 430.610321
14 1 1.569394 1.495408 0.759184 -921.322144 -98.583405 290.937195
15 1 1.558222 1.553288 0.606896 -875.030396 -191.852066 -309.465851
16 0 1.753762 0.597926 0.852741 -1632.523682 -1130.553711 -467.934814
17 1 1.812840 0.673232 0.823777 888.087646 617.033752 155.657013
18 1 1.773575 0.574747 0.947978 438.668579 105.185349 437.833130
19 0 1.126608 0.728328 0.687014 -102.930641 -1132.462402 -698.233765
20 1 1.169150 0.813147 0.655457 527.767944 832.868103 30.646893
21 1 1.084326 0.743476 0.776361 -210.849365 237.804413 595.011719
22 0 1.786017 0.578563 0.197559 1461.508667 910.842529 886.972656
23 1 1.748167 0.575051 0.105066 -671.157654 -131.621704 -930.816040
24 1 1.732389 0.519432 0.257789 -788.260803 -537.969971 173.672287
25 0 0.701453 1.126506 1.036229 26.642872 -2486.384521 175.801392
26 1 0.643158 1.165451 1.107538 -189.265457 884.483459 385.423187
27 1 0.748456 1.200205 0.987658 277.951630 1230.856201 -405.219574
28 0 0.876957 0.761373 0.008889 -365.141724 -1503.276733 728.542725
29 1 0.875260 0.837237 0.074017 113.572098 447.481476 11.174571
30 1 0.900225 0.795980 1.780059 329.730194 758.036011 -847.910156
31 0 0.715254 0.951462 0.665607 178.713181 -1105.135986 -1114.926392
32 1 0.779804 0.944047 0.741623 505.243744 148.309570 757.086426
33 1 0.650661 1.025594 0.683837 -708.018188 757.573975 595.513611
34 0 0.719211 1.171667 1.849113 -135.228424 -1381.481812 -158.105286
35 1 0.781625 1.239406 0.025988 568.845520 847.533386 366.526276
36 1 0.641836 1.218358 1.806299 -655.601929 511.048523 -511.073975
37 0 0.351871 1.374494 1.053848 166.237579 -195.607117 1008.132690
38 1 0.265190 1.345375 1.013371 -449.736389 -270.807922 -379.565399
39 1 0.394417 1.443578 0.995391 274.690796 611.619263 -730.577087
40 0 1.478606 1.535888 1.444766 410.011230 -1533.661743 75.787476
41 1 1.540088 1.614705 1.441963 349.116455 1107.769897 -316.246918
42 1 1.383800 1.567625 1.446886 -728.635193 413.991516 18.472433
43 0 0.447272 0.393175 1.483744 951.752380 1054.215942 -630.430176
44 1 0.528163 0.335049 1.492573 194.428513 -418.894592 110.530930
45 1 0.366695 0.343220 1.515555 -742.082275 -606.480591 316.394501
46 0 1.564319 0.402742 0.780509 288.339355 -1142.311768 -87.742065
47 1 1.483366 0.432440 0.729867 -519.685303 405.327179 -205.213043
48 1 1.617147 0.482788 0.808828 191.962280 936.182007 263.866150
49 0 0.259945 1.739105 0.442242 -1269.924683 -800.995667 -200.120850
50 1 0.286752 1.801555 0.515599 546.786987 533.834290 525.841553
51 1 0.331819 1.736488 0.372764 718.296509 213.316513 -246.891296
52 0 1.146784 1.350723 1.651149 597.583252 1867.599121 -296.011230
53 1 1.238268 1.319255 1.676457 172.274963 -455.503510 67.230675
54 1 1.080365 1.278226 1.669384 -608.724976 -1272.834351 142.998825
55 0 0.247918 1.464170 0.514446 241.677185 -564.736511 -6.523956
56 1 0.228930 1.560787 0.496989 -36.865997 786.205505 -11.767868
57 1 0.220298 1.441098 0.607745 -179.970062 16.976746 251.348938
58 0 0.315791 1.069212 0.882504 930.957275 234.922241 -1210.110962
59 1 0.327280 0.982649 0.931237 -145.579193 -568.117004 254.635620
60 1 0.257945 1.130407 0.936439 -698.172485 303.943939 673.086609
61 0 0.578622 1.780053 1.463782 706.342712 -698.488464 -639.051270
62 1 0.487893 1.758036 1.499609 -801.348511 24.285112 401.019623
63 1 0.596785 0.015485 1.476646 -13.001648 586.702698 198.543213
64 0 0.546887 1.067113 0.177016 -1179.512695 -386.329620 124.291771
65 1 0.595379 1.103911 0.097679 741.992004 110.480331 -472.542084
66 1 0.609949 1.060055 0.254303 488.705688 -73.607460 482.847687
67 0 1.537285 0.162684 1.441679 -183.576355 -652.402039 -114.457932
68 1 1.612126 0.204737 1.390392 301.202118 405.094421 -172.516907
69 1 1.510820 0.222635 1.517214 11.919846 213.784592 160.460052
70 0 0.113452 0.675902 0.580956 348.192505 195.640015 -1291.113770
71 1 0.096979 0.577946 0.592500 -215.777512 -453.898468 395.115204
72 1 0.124335 0.718677 0.670688 -172.579880 152.916458 873.001892
73 0 0.007227 1.740332 0.314034 -855.178711 -978.569519 -312.497986
74 1 0.096260 1.747506 0.358997 839.596619 296.297638 454.420105
75 1 1.843156 1.829632 0.277391 260.729980 704.378662 -90.121201
76 0 0.027893 1.590701 0.081886 88.673447 -216.510880 -1052.255493
77 1 1.829820 1.510924 0.086316 -216.635651 -278.277588 277.425385
78 1 0.039404 1.628901 0.173583 -249.811035 143.449310 930.738647
79 0 1.726708 0.934725 0.653799 -218.072632 -207.396576 992.162109
80 1 1.743078 0.857819 0.592013 203.621140 -142.809357 -661.992493
81 1 1.711387 1.017801 0.600286 -111.810791 302.805298 -652.296082
82 0 1.670269 1.127275 0.436894 -1542.438477 -664.933899 -945.247192
83 1 1.751437 1.093302 0.389380 1023.014526 -83.288628 -131.655914
84 1 1.697022 1.198396 0.501902 545.997681 594.793457 873.582031
85 0 0.080830 0.796214 1.578178 552.185852 -1398.000732 491.408020
86 1 0.162039 0.847613 1.550553 158.172821 422.932007 -184.461227
87 1 1.860911 0.843605 1.546029 -254.930908 744.537781 -640.748291
88 0 0.627770 1.390998 0.729353 -294.405823 483.138336 1005.907654
89 1 0.587908 1.299659 0.721092 -278.211639 -813.624023 -356.333954
90 1 0.641147 1.429899 0.638206 -51.369133 21.844318 -927.224792
91 0 1.304663 1.243929 1.383820 -634.018799 601.526062 -346.917450
92 1 1.305752 1.168545 1.318123 48.877625 -366.981445 -137.936264
93 1 1.370339 1.225393 1.456916 331.054260 -263.041473 644.059326
94 0 0.830421 0.014770 0.553974 1425.415161 -1243.860840 356.660522
95 1 0.875905 0.088051 0.503364 13.972282 829.510132 -377.921021
96 1 0.731803 0.031295 0.555138 -1150.080322 641.082642 -327.928192
97 0 0.185294 0.951696 1.306197 -860.526123 451.965454 639.200073
98 1 0.272832 0.916558 1.272993 806.391479 -382.182678 -259.575836
99 1 0.112341 0.923848 1.243729 91.432510 -205.743317 -253.761292
100 0 1.546968 1.040627 0.200723 -91.648438 368.222504 -1311.138916
101 1 1.498408 0.956044 0.222807 -225.257172 -478.417542 515.019409
102 1 1.588489 1.077870 0.283722 252.844696 1.905731 804.762390
103 0 1.222121 1.817157 1.629358 130.974640 367.794830 1304.818115
104 1 1.237315 0.035102 1.571320 -75.008209 255.715973 -741.942261
105 1 1.219895 1.734800 1.572680 -82.965210 -700.920593 -680.065613
106 0 0.363432 0.216196 1.823429 77.699249 -2106.476562 483.763123
107 1 0.424536 0.291295 1.798401 184.529587 1261.888428 -233.884460
108 1 0.268911 0.242090 1.803547 -655.659424 809.183105 -193.203262
109 0 1.435231 1.449834 0.893942 935.426575 1056.474609 -956.699951
110 1 1.396049 1.467675 0.984200 -509.474243 -31.310583 907.136230
111 1 1.415601 1.355517 0.867131 -209.627960 -1002.989624 -13.074829
112 0 1.702610 1.844290 0.581102 -265.749268 619.726929 -366.548004
113 1 1.697016 1.749277 0.550424 75.926682 -458.838867 -44.528130
114 1 1.759184 1.849471 0.663398 88.229317 -193.080246 266.671539
115 0 0.590118 0.718617 0.283280 982.360718 -460.568695 -534.426941
116 1 0.608601 0.814536 0.261883 -88.284149 469.965820 138.876678
117 1 0.534624 0.713073 0.366285 -793.488037 250.143921 694.309692
118 0 1.275468 0.386899 0.954537 -325.300629 1134.615723 -817.923218
119 1 1.199023 0.324703 0.937573 -242.868744 -445.369843 232.088898
120 1 1.348638 0.337696 1.001709 336.626129 -659.563965 547.595215
121 0 1.609918 1.646546 0.351633 -633.000427 -0.592407 1554.125244
122 1 1.708170 1.658610 0.337456 756.948486 212.477615 -394.685730
123 1 1.562888 1.649609 0.263435 -96.138977 -124.198151 -1051.452271
124 0 0.806593 0.602268 1.466837 512.731201 637.648315 -13.387412
125 1 0.781385 0.573919 1.559362 -426.207214 -231.728241 690.870178
126 1 0.805073 0.522866 1.406067 -361.305786 -693.984497 -534.839478
127 0 1.414450 0.483308 1.663245 -617.366943 772.110168 -1064.076294
128 1 1.449644 0.554475 1.724044 301.990936 67.342316 581.979370
129 1 1.462171 0.397332 1.681431 350.701691 -658.809448 427.453308
130 0 0.942531 0.853036 1.618804 -176.189667 455.347900 1747.450439
131 1 0.990755 0.790275 1.557685 375.666473 -282.662445 -928.507690
132 1 0.880385 0.910381 1.565425 -239.661255 189.938263 -821.141663
133 0 1.010864 0.392864 1.190215 1416.283447 210.998199 551.805664
134 1 0.914956 0.409206 1.213337 -925.981934 11.730906 88.502274
135 1 1.018230 0.369188 1.093338 -255.537415 -206.479813 -456.428040
136 0 1.048514 0.723432 0.422775 1078.942871 978.050903 -1090.910645
137 1 1.067369 0.714804 0.520602 -94.586418 -194.808701 986.915100
138 1 0.960406 0.680972 0.401937 -1067.843140 -734.013794 116.737122
139 0 0.075467 0.786903 0.835915 -281.203064 -777.575684 -600.660706
140 1 0.162411 0.803610 0.882408 748.717102 316.856903 300.219696
141 1 0.015603 0.866134 0.847696 -105.270531 801.644409 163.288727
142 0 0.081917 0.013812 1.585405 463.882568 575.721191 -1245.423096
143 1 0.114262 1.857655 1.678259 -4.436234 -402.607208 1141.835815
144 1 1.861133 1.822662 1.567924 -337.287415 -155.374420 206.685944
145 0 0.861923 0.346442 0.234571 -92.947159 407.729340 753.017395
146 1 0.910946 0.402948 0.168211 241.134903 43.570511 -627.521118
147 1 0.817872 0.270132 0.187282 -24.756765 -352.953766 -447.763916
148 0 1.674523 0.574019 1.813486 -79.617142 -1053.304199 1106.315063
149 1 1.665501 0.657872 1.759752 0.967125 865.748169 -777.643066
150 1 1.690949 0.496745 1.752177 230.343536 -114.663712 -332.080200
151 0 1.397996 1.151131 0.489615 236.403870 -1390.978027 767.571533
152 1 1.488065 1.158241 0.446755 633.989197 138.305145 -151.587891
153 1 1.341078 1.228039 0.460536 -654.910461 845.791687 -377.813751
154 0 0.563861 0.156714 0.980614 7.707188 -1488.991089 -2347.306641
155 1 0.552800 0.183991 1.076183 101.640465 581.416748 1328.500366
156 1 0.541188 0.233815 0.921104 14.298981 451.834320 43.832649
157 0 1.006188 1.462033 0.484132 561.438232 -1044.906128 -138.427124
158 1 0.977552 1.535178 0.422247 -448.188812 676.158081 -185.151154
159 1 0.966309 1.477346 0.574549 -352.935211 444.525574 375.173523
160 0 0.354600 1.809983 0.931785 -1541.205444 444.411499 56.995625
161 1 0.397195 1.722040 0.910534 656.035950 -788.285156 -66.509567
162 1 0.425685 0.015835 0.950086 860.967590 345.367126 16.193214
163 0 1.789315 1.040009 0.897551 1415.851440 -97.530266 804.139038
164 1 1.772432 1.038374 0.799000 -456.163513 -141.875031 -770.678345
165 1 1.702070 1.037597 0.946362 -745.638489 223.576370 233.158035
166 0 1.206547 1.575384 1.485366 822.935486 1132.247314 -113.436630
167 1 1.221665 1.484415 1.524045 -417.481567 -741.630554 244.359589
168 1 1.119203 1.576817 1.436694 -494.765259 -228.231689 -144.340515
169 0 0.289433 0.918191 0.269173 -280.884033 999.429810 491.691620
170 1 0.367021 0.946254 0.212671 499.094788 73.415581 -387.506500
171 1 0.269580 0.821540 0.252904 -187.898468 -1066.313232 -422.712341
172 0 1.484620 0.788669 0.744717 -716.117859 873.865845 -1263.321045
173 1 1.480475 0.708951 0.804949 23.093597 -620.512817 917.355591
174 1 1.579703 0.817979 0.734709 565.365601 113.841675 78.579964
175 0 0.480055 1.281092 1.744091 1617.168701 -11.968796 709.144836
176 1 0.428508 1.268396 1.659346 -745.839172 25.851665 -831.366638
177 1 0.423115 1.329022 1.810879 -489.305420 73.400375 138.485809
178 0 1.127873 1.794249 0.196828 -99.590012 1142.081543 409.738922
179 1 1.083171 1.742638 0.269889 -180.364105 -523.551697 159.490250
180 1 1.146483 1.733454 0.119642 189.851089 -850.377808 -250.620453
181 0 0.216660 0.272322 1.538900 671.422974 108.441544 -1057.286499
182 1 0.172854 0.340107 1.597945 -395.664734 31.275406 649.036011
183 1 0.181605 0.181297 1.560935 -612.756287 -548.800720 480.105988
184 0 1.628181 1.352421 0.103572 1544.769775 -177.108398 208.497375
185 1 1.592124 1.445108 0.114018 -671.307800 496.037048 11.111679
186 1 1.555508 1.291833 0.071205 -750.563660 -99.098022 -191.750626
187 0 0.501504 1.787130 0.290474 -1417.010254 89.153534 -326.268677
188 1 0.545015 1.813383 0.376599 509.364197 296.864594 542.448303
189 1 0.568241 1.740781 0.232182 663.737061 -574.283936 -158.544693
190 0 1.422119 0.075728 0.461531 -673.598450 441.114624 1425.080078
191 1 1.414167 0.058645 0.363323 85.130745 -98.155952 -1157.691040
192 1 1.510584 0.042374 0.494113 536.681396 -145.590179 22.597229
193 0 0.261428 1.807735 1.190886 -726.431641 531.577393 833.017883
194 1 0.298394 1.718455 1.216626 323.618713 -611.268677 44.226219
195 1 0.289051 1.829522 1.097279 396.992310 -255.378723 -705.082275
196 0 0.987768 1.687725 0.878821 -1030.621216 1334.347534 251.632309
197 1 1.080948 1.660354 0.902662 748.157532 -521.006409 -25.088989
198 1 0.947532 1.619432 0.817852 -51.016758 -486.771301 -313.482178
199 0 0.388923 0.660636 0.467181 1147.152222 1266.389771 -327.581146
200 1 0.387337 0.563373 0.490361 -268.644409 -1169.591187 308.121155
201 1 0.301111 0.702050 0.491139 -657.272156 -132.609192 194.975845
202 0 1.514875 0.241366 1.745118 535.161743 906.362671 -1896.890747
203 1 1.495698 0.283585 1.833718 -223.921204 -34.004272 1341.496216
204 1 1.488183 0.145027 1.747624 -309.201965 -894.429199 592.675354
205 0 0.652975 0.144668 0.078134 -448.025635 1124.581055 173.783417
206 1 0.734534 0.096606 0.110355 827.017761 -574.955200 181.938858
207 1 0.590952 0.079503 0.034469 -456.922821 -669.454956 -352.651672
208 0 0.792108 0.265196 1.733178 -324.054321 1038.705811 -1051.868408
209 1 0.887839 0.236290 1.733067 574.030151 -526.429504 147.027344
210 1 0.741063 0.211211 1.800111 -330.122772 -281.043213 677.191406
211 0 0.868971 1.527051 1.174234 -449.305389 680.992249 6.394407
212 1 0.828383 1.465667 1.106523 82.943062 -398.001465 -283.417603
213 1 0.935778 1.476723 1.229043 308.159424 -435.287781 202.135025
214 0 1.319908 0.600222 1.431085 -924.132385 -681.711426 -572.697266
215 1 1.364261 0.567428 1.514496 492.861389 -160.381180 826.329468
216 1 1.344559 0.695895 1.415629 459.054199 873.069214 -157.160202
217 0 0.805601 1.332718 0.910385 162.218018 -586.533997 1836.831177
218 1 0.895941 1.364043 0.881105 824.293518 113.741570 -542.095154
219 1 0.736071 1.368639 0.848133 -558.459045 441.407684 -986.492126
220 0 0.941003 0.495663 0.881662 313.744537 1996.598389 1863.373657
221 1 0.919797 0.489193 0.784151 -514.416138 -673.283020 -1333.844360
222 1 0.958486 0.404199 0.918114 17.748156 -1158.256958 -216.789825
223 0 0.582254 0.083286 0.498343 843.269653 -635.082214 34.224586
224 1 0.512248 0.086537 0.569678 -809.078857 7.918171 410.747559
225 1 0.562335 0.152445 0.428914 -349.798523 667.377075 -501.739319
226 0 1.396271 1.215917 0.034906 1111.714478 266.810608 -1572.274658
227 1 1.433037 1.155447 0.105557 98.216309 -657.291199 656.256653
228 1 1.307180 1.250825 0.063963 -882.771118 126.150421 782.633545
229 0 0.296857 0.055383 0.172527 -1621.614746 -316.238159 212.323883
230 1 0.337907 0.123033 0.111385 560.131470 593.219666 -543.178711
231 1 0.369134 0.005016 0.219845 1063.607178 -251.617859 301.983002
232 0 0.980738 0.265418 0.460884 -704.448853 -754.471313 1472.815186
233 1 0.948252 0.289878 0.369525 -201.551682 412.572571 -969.525879
234 1 1.080716 0.266996 0.462243 801.312439 282.068604 -247.202591
235 0 1.062050 0.694444 1.437080 -148.563187 979.488403 -232.627838
236 1 0.998467 0.624464 1.469635 -403.276398 -461.482788 11.581043
237 1 1.154373 0.656248 1.432896 784.441284 -543.510620 -1.019424
238 0 1.223159 1.590681 0.777323 -868.077332 -1188.425659 133.242599
239 1 1.225401 1.675328 0.724126 330.551575 927.430664 -480.102570
240 1 1.315648 1.568055 0.807880 600.280945 -44.229050 230.911728
241 0 0.510436 1.122535 0.696425 1456.835205 741.360718 -278.869110
242 1 0.439116 1.108226 0.765045 -934.213989 -354.024689 613.589172
243 1 0.470716 1.114889 0.604971 -695.389343 -183.758392 -466.958984
244 0 1.236515 1.815196 0.628434 127.440132 -1406.340698 232.751831
245 1 1.289634 0.005333 0.561697 479.018188 669.900330 -413.004395
246 1 1.163880 0.010871 0.665726 -475.293854 731.037964 155.783813
247 0 1.035673 0.508725 0.029548 -543.968323 -1083.132568 -1035.078491
248 1 0.987099 0.594414 0.012282 -163.013245 819.089661 231.119644
249 1 1.078067 0.512092 0.120054 446.179626 353.759521 880.300354
250 0 0.104533 0.598366 1.368306 -1121.473633 -703.370667 -545.916626
251 1 0.198221 0.565684 1.355873 981.726013 179.149063 96.515869
252 1 0.101264 0.661522 1.445770 212.973175 504.137604 625.483215
253 0 0.549417 0.217409 1.223998 404.595459 722.959229 -588.697693
254 1 0.594953 0.175468 1.302530 119.905136 -144.378128 856.430176
255 1 0.451874 0.227581 1.243542 -832.104065 -108.132118 560.482788
256 0 0.855294 0.446805 0.644835 -4.966112 86.776154 537.701172
257 1 0.800951 0.515935 0.597214 -254.721222 264.327057 -434.533356
258 1 0.893264 0.382572 0.578258 225.668335 -387.810638 -685.756592
259 0 1.015299 0.076487 0.741846 1077.452026 1014.796387 349.773529
260 1 0.942230 0.082231 0.673817 -643.902649 -382.629028 -427.293213
261 1 1.011943 1.849345 0.786919 -355.996216 -814.027527 383.523193
262 0 1.426242 1.174960 0.823549 390.421936 620.322266 846.327515
263 1 1.339379 1.125533 0.826999 -608.074646 -391.828339 -279.745911
264 1 1.467493 1.163598 0.733165 -45.907303 -196.531006 -511.523987
265 0 1.430110 0.624273 0.946219 -248.423965 968.062317 -952.217651
266 1 1.362479 0.550623 0.947558 -350.600769 -762.185730 275.858978
267 1 1.499974 0.606638 1.015560 478.331482 -325.530640 843.204163
268 0 1.812944 0.782293 0.389312 -673.802185 1346.308228 77.229797
269 1 0.022683 0.739553 0.444250 559.996338 -648.083435 592.019714
270 1 1.783503 0.718901 0.317795 -58.185173 -726.378296 -456.799683
271 0 0.493898 1.408883 0.160589 810.076904 751.916809 -267.575684
272 1 0.400811 1.401971 0.196463 -764.739441 -533.083984 373.869507
273 1 0.541618 1.322158 0.174785 -276.474884 -506.120453 89.199181
274 0 1.742159 1.264691 0.651069 -1313.799316 -448.918030 -155.853943
275 1 1.841539 1.260942 0.640597 1170.866089 -114.997131 179.763855
276 1 1.713617 1.359578 0.664553 -46.767792 620.738525 36.615837
277 0 1.339285 0.550568 0.088918 396.769653 1241.274170 -1436.663086
278 1 1.267453 0.546315 0.158358 -419.574768 -413.126343 822.975037
279 1 1.392252 0.465762 0.090512 303.106079 -749.702026 497.973389
280 0 0.530226 0.284887 0.288820 73.008278 -588.747437 1544.678711
281 1 0.571257 0.234650 0.212710 220.619995 -118.677246 -880.488708
282 1 0.502104 0.375620 0.257569 -336.438782 580.282593 -561.930664
283 0 1.721047 1.266350 1.528266 -1164.409302 -690.079224 -286.466125
284 1 1.803494 1.212635 1.546076 785.866699 129.148102 36.181553
285 1 1.740689 1.363336 1.542685 368.867432 594.736755 318.040588
286 0 1.012038 1.336567 1.352495 200.245911 390.566162 -1012.712463
287 1 0.922172 1.330837 1.395983 -614.540955 -297.141785 528.587158
288 1 1.083201 1.319520 1.420650 293.391785 -209.316864 526.381104
289 0 1.601764 1.644657 1.698789 -1187.250610 950.167297 1345.270264
290 1 1.543652 1.599075 1.631371 98.201569 -424.492004 -539.101074
291 1 1.697004 1.617852 1.684265 730.808838 -620.154602 -695.271545
292 0 1.156660 1.288081 1.126747 1239.042358 -375.482269 -817.935181
293 1 1.106931 1.279880 1.213116 -763.409180 358.349823 797.172729
294 1 1.093247 1.314761 1.054173 -424.908783 170.732101 -323.917664
295 0 1.569589 1.093471 1.062556 711.728394 -1174.718262 204.039429
296 1 1.566181 1.161594 1.135684 -273.210175 699.335815 298.714508
297 1 1.504965 1.118641 0.990513 -520.636597 424.998871 -547.302551
298 0 0.911035 0.103143 1.351872 -1327.934814 -391.355804 495.977081
299 1 0.936347 0.073845 1.259672 554.533813 -269.194824 -748.544983
300 1 0.992622 0.134482 1.400467 1052.658203 391.110657 120.894112
301 0 0.983694 1.148650 1.682570 720.926514 563.088806 150.138428
302 1 0.894394 1.168406 1.723009 -636.280518 -266.493378 182.217804
303 1 0.983448 1.056044 1.644836 -272.149536 -586.904724 -95.161423
304 0 0.711332 1.000522 0.406158 -1191.833130 1086.086548 -1358.056152
305 1 0.712088 0.980818 0.504194 266.077942 -477.306549 1118.635864
306 1 0.791794 0.959445 0.363279 1000.844910 -289.188660 -240.201553
307 0 0.436106 0.833329 1.258474 -778.773926 1236.967285 -1090.141968
308 1 0.510135 0.856575 1.321556 566.484985 -364.599030 765.474121
309 1 0.416555 0.735453 1.264642 -33.539101 -1018.451599 500.343933
310 0 1.254355 0.368593 1.308589 1109.135010 -1527.803711 -207.268433
311 1 1.284090 0.444141 1.366970 34.215706 1111.932129 228.040726
312 1 1.169600 0.393884 1.261930 -1018.639709 450.250824 -431.394470
313 0 0.074083 1.572820 1.350800 -330.317261 -1155.954834 1392.256104
314 1 0.025653 1.644430 1.300536 -305.836334 593.318115 -785.328003
315 1 0.171519 1.576595 1.328617 852.187988 154.206512 -273.412048
316 0 0.321545 1.095855 0.454167 480.259064 968.769409 2252.060547
317 1 0.298160 1.173701 0.395917 -110.629044 323.119873 -807.716553
318 1 0.307724 1.010851 0.403341 -141.353165 -614.163208 -990.751648
319 0 0.533525 0.505012 0.863518 -746.940491 -789.300476 250.120209
320 1 0.555312 0.548320 0.776055 479.608032 455.734894 -576.547241
321 1 0.608459 0.520411 0.927922 709.872681 372.553528 200.322479
322 0 1.243369 1.349098 0.426577 203.358032 -1366.726807 -1059.120117
323 1 1.321532 1.407189 0.449293 420.604584 1050.755493 436.823425
324 1 1.160630 1.386744 0.468257 -804.334717 655.854065 321.624664
325 0 1.355717 1.476806 1.163647 445.095459 971.302673 -690.510681
326 1 1.406482 1.466272 1.249157 5.702393 -310.614960 468.314270
327 1 1.301416 1.394548 1.146767 -679.164917 -820.691345 353.801025
328 0 1.506509 0.639218 0.475631 416.491455 -361.455902 803.584290
329 1 1.468642 0.676500 0.560343 -186.564117 387.495056 201.925873
330 1 1.476407 0.694991 0.398279 -497.432434 630.564941 -445.875732
331 0 0.345475 1.542672 1.279225 -1447.055786 783.375610 668.190125
332 1 0.329346 1.471187 1.211182 325.697937 -655.140259 -687.891907
333 1 0.443727 1.559439 1.287309 1024.024902 -127.106422 -135.938965
334 0 0.456915 0.669535 1.606414 -931.629883 837.398499 553.940735
335 1 0.529717 0.704374 1.547370 441.893311 87.163132 -413.428864
336 1 0.461944 0.569733 1.610184 231.223785 -639.563477 -207.935944
337 0 1.645516 0.791252 1.668101 280.883118 -747.052795 1213.153931
338 1 1.556151 0.834785 1.657204 -760.753845 452.926514 -383.909119
339 1 1.706322 0.821085 1.594530 -48.624786 448.923584 -735.949219
340 0 1.038146 0.126594 1.749516 -1502.225342 160.693466 636.471802
341 1 1.099677 0.205258 1.744427 729.601807 468.486511 -166.580185
342 1 1.083583 0.046196 1.711153 772.788696 -498.076141 -418.138824
343 0 0.480765 1.841395 1.776424 1494.583008 -560.793518 421.817993
344 1 0.430339 1.772739 1.724045 -558.674561 -137.570694 -344.200287
345 1 0.425712 0.062462 1.784107 -725.664612 762.749268 -44.417431
346 0 0.589009 0.861778 1.036312 672.686523 -1099.454712 -1068.011963
347 1 0.641791 0.946155 1.046029 119.817116 861.953064 70.963676
348 1 0.513113 0.862250 1.101424 -442.323700 214.458176 933.095093
349 0 1.259668 0.881183 0.965687 410.117584 1076.210449 277.592682
350 1 1.172385 0.832501 0.969116 -442.317535 -758.924866 -208.122604
351 1 1.329919 0.821025 0.927663 236.245834 -557.325867 -186.204529
352 0 1.152694 0.519150 0.277695 -124.305832 -320.559387 -1585.070312
353 1 1.185468 0.444736 0.335905 368.798584 -484.144257 831.105103
354 1 1.132246 0.599110 0.334161 -277.517670 590.153198 775.796753
355 0 0.270923 0.194945 1.282801 583.087891 1076.270508 -1106.577515
356 1 0.240155 0.227473 1.372217 -229.083649 180.466614 905.758972
357 1 0.256373 0.096214 1.276431 -59.557922 -1058.148926 -59.036373
358 0 0.027348 1.316290 1.240025 -383.870514 -596.921875 -941.845398
359 1 0.055547 1.259820 1.317588 292.979370 -163.116241 581.087891
360 1 0.018178 1.411373 1.269608 249.373016 603.911011 470.218781
361 0 0.725925 0.602391 1.039440 -393.607605 -821.662903 759.184204
362 1 0.797853 0.591118 0.970888 633.442383 29.377134 -594.734375
363 1 0.689989 0.695607 1.035032 -265.472717 892.885742 -239.642441
364 0 1.761539 0.948667 0.009108 1004.650146 499.908966 -241.976151
365 1 1.722799 0.882240 1.807241 -481.315979 -481.620941 -229.788177
366 1 1.689753 0.981782 0.070347 -477.900391 58.877487 359.581665
367 0 0.351816 0.035396 0.659291 743.676819 -595.543213 -1114.112549
368 1 0.289913 0.113897 0.661675 -625.276245 824.723572 326.915710
369 1 0.350474 1.851241 0.747961 -175.875748 -32.666653 705.468994
370 0 1.612997 0.439607 0.360516 733.808228 -1491.890259 -1919.527954
371 1 1.671302 0.375577 0.410523 241.418900 -327.366699 577.846130
372 1 1.582424 0.512066 0.422281 -657.372437 1037.464111 817.226746
373 0 1.031108 0.730955 0.956721 1183.206787 1530.403198 -959.439209
374 1 1.009054 0.745988 1.053093 -498.703552 -267.250671 1297.949951
375 1 1.011171 0.636035 0.932376 -476.854492 -1282.752197 -44.616318
376 0 0.994382 1.584077 1.740574 277.619568 425.004883 1272.454346
377 1 0.976791 1.625368 1.651212 49.091263 80.059631 -1185.867676
378 1 1.033687 1.492983 1.728049 197.691406 -672.932556 -735.613892
379 0 1.821159 1.535841 1.599735 -884.989807 -235.504059 590.227722
380 1 1.860011 1.547471 1.508327 696.706238 169.883972 -827.524536
381 1 0.032983 1.524512 1.666164 700.137207 -119.487930 34.282043
382 0 0.348676 0.866936 1.763725 -1032.323853 986.968994 537.786377
383 1 0.426150 0.917762 1.801332 387.590088 -37.390247 -33.754978
384 1 0.382446 0.790043 1.709438 742.317017 -592.367493 -587.769775
385 0 1.481088 0.320596 0.138703 -285.908813 353.592285 -1400.026978
386 1 1.447639 0.230349 0.165845 -233.690933 -637.442627 603.966797
387 1 1.537702 0.358556 0.211872 355.159241 303.673187 944.682983
388 0 1.292503 0.804573 1.859782 -558.215576 574.440552 955.861755
389 1 1.317830 0.707976 0.002973 239.626328 -907.737366 154.182129
390 1 1.335421 0.845971 1.779506 449.355011 96.400627 -938.191650
391 0 1.066372 1.360265 0.837283 -1017.640686 541.861267 744.171021
392 1 1.110891 1.273972 0.813375 332.444214 -822.181213 -420.292450
393 1 1.118750 1.436466 0.799206 681.286560 469.619049 -249.034653
394 0 0.339811 0.794616 0.940506 -1201.920166 736.603943 -147.743317
395 1 0.437485 0.813433 0.930231 796.195923 -172.308746 67.329117
396 1 0.327434 0.705177 0.983488 198.136703 -724.659180 82.929314
397 0 0.311120 0.506001 0.995178 -1127.312012 1847.048584 1445.799072
398 1 0.274209 0.413218 1.000560 -251.894974 -1201.861450 -168.758453
399 1 0.398328 0.504398 0.946268 1065.447510 -327.541595 -970.534302
400 0 0.466326 0.455237 1.792474 -302.937958 -780.127747 -1129.989624
401 1 0.431271 0.475800 0.021783 47.900330 500.279175 1022.954041
402 1 0.555093 0.499581 1.780067 686.663452 518.445740 102.793610
403 0 1.168966 0.371024 1.694781 -613.765259 -1795.952515 -921.289551
404 1 1.109652 0.409775 1.765352 -219.417923 947.874451 821.436462
405 1 1.247189 0.431556 1.680053 718.002380 596.523804 172.632965
406 0 1.143341 0.192627 1.469777 -767.483765 -1816.419189 455.582916
407 1 1.139244 0.247410 1.553336 195.221008 803.097168 342.654724
408 1 1.190281 0.244394 1.398246 552.998108 914.042175 -506.704529
409 0 0.016144 1.270624 0.207613 600.801880 1068.545410 -540.243530
410 1 1.788929 1.288189 0.166121 -1072.642578 -38.600792 -174.848358
411 1 0.015765 1.180304 0.250534 -187.177170 -1051.272949 356.656677
412 0 0.051547 1.746209 0.958217 -222.491180 1089.881226 689.184326
413 1 0.039711 1.661197 0.906905 -64.840759 -1216.128540 -679.809998
414 1 0.148584 1.770208 0.961036 688.696228 -191.943069 -231.946060
415 0 0.484853 1.564201 0.889995 -2184.138916 -397.418091 972.328003
416 1 0.552514 1.637833 0.889430 1274.145630 614.528870 -326.196106
417 1 0.512798 1.492757 0.825848 873.864502 -312.234222 -593.168152
418 0 0.937543 0.772348 1.204764 -117.484680 539.888062 -1278.309937
419 1 0.995551 0.752769 1.283832 278.300385 -307.989136 970.808716
420 1 0.850534 0.724025 1.214472 -159.328583 -208.209625 325.935211
421 0 0.018847 0.540894 1.115771 -1255.316406 70.679382 -963.901672
422 1 0.094617 0.525351 1.052388 613.231201 -56.413712 -1.552368
423 1 0.055108 0.561504 1.206657 527.550476 204.801270 862.398254
424 0 0.193416 0.622833 1.780755 -412.621338 -960.854736 857.052734
425 1 0.283550 0.617924 1.737723 397.699921 168.348022 -342.653076
426 1 0.147018 0.706446 1.751497 -89.853088 502.177856 -617.465088
427 0 1.394156 0.908843 1.630356 413.458893 -671.982605 1611.579102
428 1 1.401732 1.007830 1.642370 -34.672455 769.793945 -361.629883
429 1 1.381287 0.887917 1.533421 -159.831360 99.270889 -1173.789551
430 0 0.819925 0.585828 0.361902 910.046265 649.229431 870.946594
431 1 0.823877 0.493821 0.322926 -156.749466 -745.012451 -397.151428
432 1 0.734328 0.629861 0.334806 -770.233582 226.495468 -417.546265
433 0 1.608376 0.595048 1.150631 -937.266174 714.574951 -381.778168
434 1 1.581369 0.536860 1.227344 180.564331 -307.537109 322.327606
435 1 1.708074 0.595874 1.142903 919.855103 -513.950378 144.037720
436 0 0.233937 1.511022 1.719280 -43.467194 479.880585 -1169.496338
437 1 0.200631 1.581725 1.781664 -22.676277 216.388794 646.159607
438 1 0.225300 1.421405 1.762802 -182.412399 -819.628357 655.381104
439 0 0.751554 0.434569 1.249151 885.225159 -228.480545 1203.401001
440 1 0.688596 0.357352 1.240560 -565.151367 -373.840088 -249.818069
441 1 0.738054 0.497281 1.172437 -463.924347 572.202515 -944.971313
442 0 0.917221 1.698043 1.491545 597.105835 -585.382324 807.555908
443 1 0.822068 1.679286 1.467172 -362.794983 83.563065 -262.769989