ITEM: TIMESTEP                                                                  
0                                                                               
ITEM: NUMBER OF ATOMS                                                           
648                                                                             
ITEM: BOX BOUNDS pp pp pp                                                       
0 18.62060                                                                      
0 18.62060                                                                      
0 18.62060                                                                      
ITEM: ATOMS id type x y z fx fy fz 
1 0 2.00357 6.78738 1.9591 22.801 5.33809 22.0241
2 1 1.05353 6.6152 2.21943 -18.0757 -8.1691 -7.09504
3 1 2.07829 6.80355 0.96203 -10.0056 -6.05744 -21.465
4 0 2.05671 2.66902 10.1466 30.6397 23.8747 -20.4932
5 1 2.37372 2.27665 11.0101 -2.9897 -8.03387 19.0715
6 1 1.16403 2.28355 9.91311 -22.9853 -17.7346 4.07413
7 0 18.2389 3.91201 6.49256 28.7993 9.58975 7.93532
8 1 17.5088 4.1963 7.11393 -11.4463 1.01974 3.38623
9 1 17.8854 3.22933 5.85304 -9.57914 -13.033 -16.1498
10 0 5.71624 13.1017 11.9905 26.2251 -26.4172 14.7374
11 1 4.95442 13.1157 11.3429 -20.7717 9.44768 -9.55618
12 1 5.80464 14 12.4207 -3.44591 20.0959 -1.44424
13 0 16.2128 15.2217 6.77994 43.974 0.222174 10.2918
14 1 15.6939 14.9541 7.59184 -22.0201 -2.3562 6.95357
15 1 15.5822 15.5329 6.06896 -20.9137 -4.58537 -7.39641
16 0 17.5376 5.97926 8.52741 -39.0183 -27.0209 -11.1839
17 1 18.1284 6.73232 8.23777 21.2258 14.7475 3.72029
18 1 17.7357 5.74747 9.47978 10.4844 2.51399 10.4645
19 0 11.2661 7.28328 6.87014 -2.4601 -27.0665 -16.6882
20 1 11.6915 8.13147 6.55457 12.614 19.906 0.732478
21 1 10.8433 7.43476 7.76361 -5.03942 5.68366 14.2211
22 0 17.8602 5.78563 1.97559 34.9309 21.7697 21.1992
23 1 17.4817 5.75051 1.05066 -16.0411 -3.14583 -22.247
24 1 17.3239 5.19432 2.57789 -18.8399 -12.8578 4.15087
25 0 7.01453 11.2651 10.3623 0.63678 -59.426 4.20175
26 1 6.43158 11.6545 11.0754 -4.52355 21.1397 9.21184
27 1 7.48456 12.0021 9.87658 6.6432 29.4182 -9.68498
28 0 8.76957 7.61373 0.08889 -8.7271 -35.9292 17.4126
29 1 8.7526 8.37237 0.74017 2.71444 10.6951 0.267079
30 1 9.00225 7.9598 17.8006 7.88074 18.1175 -20.2655
31 0 7.15254 9.51462 6.65607 4.27135 -26.4134 -26.6474
32 1 7.79804 9.44047 7.41623 12.0756 3.54468 18.0948
33 1 6.50661 10.2559 6.83837 -16.922 18.1065 14.2331
34 0 7.19211 11.7167 18.4911 -3.23204 -33.0182 -3.77881
35 1 7.81625 12.3941 0.25988 13.5957 20.2565 8.76019
36 1 6.41836 12.1836 18.063 -15.6693 12.2144 -12.215
37 0 3.51871 13.7449 10.5385 3.97317 -4.67512 24.0949
38 1 2.6519 13.4537 10.1337 -10.749 -6.47246 -9.07183
39 1 3.94417 14.4358 9.95391 6.56527 14.6181 -17.4612
40 0 14.7861 15.3589 14.4477 9.7995 -36.6554 1.81136
41 1 15.4009 16.1471 14.4196 8.34408 26.4763 -7.55848
42 1 13.838 15.6762 14.4689 -17.4148 9.89463 0.441502
43 0 4.47272 3.93175 14.8374 22.7474 25.1964 -15.0676
44 1 5.28163 3.35049 14.9257 4.64695 -10.0118 2.64175
45 1 3.66695 3.4322 15.1555 -17.7362 -14.4952 7.56201
46 0 15.6432 4.02742 7.80509 6.89148 -27.3019 -2.09709
47 1 14.8337 4.3244 7.29867 -12.4208 9.68755 -4.90471
48 1 16.1715 4.82788 8.08828 4.58801 22.3753 6.30655
49 0 2.59945 17.391 4.42242 -30.3519 -19.1443 -4.783
50 1 2.86752 18.0156 5.15599 13.0685 12.7589 12.5679
51 1 3.31819 17.3649 3.72764 17.1677 5.09839 -5.90084
52 0 11.4678 13.5072 16.5115 14.2826 44.6367 -7.07484
53 1 12.3827 13.1926 16.7646 4.11747 -10.8868 1.60685
54 1 10.8037 12.7823 16.6938 -14.5489 -30.4215 3.41775
55 0 2.47918 14.6417 5.14446 5.77622 -13.4975 -0.155926
56 1 2.2893 15.6079 4.96989 -0.881118 18.7908 -0.281259
57 1 2.20298 14.411 6.07745 -4.30139 0.405754 6.00738
58 0 3.15791 10.6921 8.82504 22.2504 5.61478 -28.9223
59 1 3.2728 9.82649 9.31237 -3.47943 -13.5783 6.08594
60 1 2.57945 11.3041 9.36439 -16.6867 7.26443 16.0872
61 0 5.78622 17.8005 14.6378 16.882 -16.6943 -15.2737
62 1 4.87893 17.5804 14.9961 -19.1527 0.580428 9.5846
63 1 5.96785 0.15485 14.7665 -0.310747 14.0225 4.7453
64 0 5.46887 10.6711 1.77016 -28.191 -9.2335 2.97064
65 1 5.95379 11.0391 0.97679 17.734 2.64054 -11.294
66 1 6.09949 10.6006 2.54303 11.6803 -1.75926 11.5403
67 0 15.3728 1.62684 14.4168 -4.38758 -15.5928 -2.73561
68 1 16.1213 2.04737 13.9039 7.1989 9.68199 -4.12325
69 1 15.1082 2.22635 15.1721 0.284891 5.10957 3.83509
70 0 1.13452 6.75902 5.80956 8.322 4.67591 -30.8584
71 1 0.96979 5.77946 5.925 -5.15721 -10.8484 9.44348
72 1 1.24335 7.18677 6.70688 -4.12476 3.65479 20.8652
73 0 0.07227 17.4033 3.14034 -20.4393 -23.3884 -7.46888
74 1 0.9626 17.4751 3.58997 20.0668 7.08168 10.8609
75 1 18.4316 18.2963 2.77391 6.2316 16.8351 -2.15395
76 0 0.27893 15.907 0.81886 2.11935 -5.17473 -25.1495
77 1 18.2982 15.1092 0.86316 -5.17772 -6.65099 6.63063
78 1 0.39404 16.289 1.73583 -5.97063 3.42852 22.2452
79 0 17.2671 9.34725 6.53799 -5.21206 -4.9569 23.7132
80 1 17.4308 8.57819 5.92013 4.86666 -3.41323 -15.822
81 1 17.1139 10.178 6.00286 -2.67234 7.23722 -15.5903
82 0 16.7027 11.2728 4.36894 -36.8652 -15.8923 -22.592
83 1 17.5144 10.933 3.8938 24.4506 -1.99065 -3.14665
84 1 16.9702 11.984 5.01902 13.0497 14.2159 20.8791
85 0 0.8083 7.96214 15.7818 13.1976 -33.413 11.7449
86 1 1.62039 8.47613 15.5055 3.78042 10.1083 -4.40873
87 1 18.6091 8.43605 15.4603 -6.09299 17.7949 -15.3143
88 0 6.2777 13.91 7.29353 -7.03647 11.5473 24.0418
89 1 5.87908 12.9966 7.21092 -6.64942 -19.4461 -8.51659
90 1 6.41147 14.299 6.38206 -1.22775 0.522092 -22.1612
91 0 13.0466 12.4393 13.8382 -15.1534 14.3768 -8.29153
92 1 13.0575 11.6854 13.1812 1.1682 -8.77107 -3.29676
93 1 13.7034 12.2539 14.5692 7.91239 -6.28684 15.3934
94 0 8.30421 0.1477 5.53974 34.0682 -29.729 8.52439
95 1 8.75905 0.88051 5.03364 0.333946 19.8258 -9.03253
96 1 7.31803 0.31295 5.55138 -27.4876 15.3222 -7.83767
97 0 1.85294 9.51696 13.062 -20.5671 10.8022 15.2772
98 1 2.72832 9.16558 12.7299 19.2732 -9.13439 -6.20401
99 1 1.12341 9.23848 12.4373 2.18529 -4.91738 -6.06504
100 0 15.4697 10.4063 2.00723 -2.19045 8.80073 -31.337
101 1 14.9841 9.56044 2.22807 -5.38378 -11.4345 12.3093
102 1 15.8849 10.7787 2.83722 6.04313 0.0455481 19.2343
103 0 12.2212 18.1716 16.2936 3.13037 8.79051 31.1859
104 1 12.3731 0.35102 15.7132 -1.79274 6.11176 -17.7328
105 1 12.1989 17.348 15.7268 -1.98292 -16.7524 -16.254
106 0 3.63432 2.16196 18.2343 1.85706 -50.346 11.5622
107 1 4.24536 2.91295 17.984 4.41036 30.1599 -5.58997
108 1 2.68911 2.4209 18.0355 -15.6706 19.3399 -4.61767
109 0 14.3523 14.4983 8.93942 22.3572 25.2503 -22.8657
110 1 13.9605 14.6768 9.842 -12.1767 -0.748341 21.6811
111 1 14.156 13.5552 8.67131 -5.01023 -23.972 -0.312496
112 0 17.0261 18.4429 5.81102 -6.35156 14.8118 -8.76071
113 1 16.9702 17.4928 5.50424 1.81469 -10.9665 -1.06425
114 1 17.5918 18.4947 6.63398 2.10873 -4.61473 6.3736
115 0 5.90118 7.18617 2.8328 23.479 -11.0079 -12.7731
116 1 6.08601 8.14536 2.61883 -2.11004 11.2325 3.31923
117 1 5.34624 7.13073 3.66285 -18.9648 5.97858 16.5944
118 0 12.7547 3.86899 9.54537 -7.77487 27.118 -19.5488
119 1 11.9902 3.24703 9.37573 -5.8047 -10.6446 5.54706
120 1 13.4864 3.37696 10.0171 8.04556 -15.764 13.0878
121 0 16.0992 16.4655 3.51633 -15.1291 -0.0141589 37.1445
122 1 17.0817 16.5861 3.37456 18.0915 5.07834 -9.43322
123 1 15.6289 16.4961 2.63435 -2.29778 -2.96841 -25.1303
124 0 8.06593 6.02268 14.6684 12.2546 15.2402 -0.319967
125 1 7.81385 5.73919 15.5936 -10.1866 -5.53844 16.5122
126 1 8.05073 5.22866 14.0607 -8.63542 -16.5866 -12.783
127 0 14.1445 4.83308 16.6325 -14.7554 18.4539 -25.432
128 1 14.4964 5.54475 17.2404 7.21776 1.60952 13.9096
129 1 14.6217 3.97332 16.8143 8.38197 -15.7459 10.2164
130 0 9.42531 8.53036 16.188 -4.21103 10.8831 41.7651
131 1 9.90755 7.90275 15.5769 8.97864 -6.75579 -22.1919
132 1 8.80385 9.10381 15.6543 -5.72804 4.53963 -19.6258
133 0 10.1086 3.92864 11.9022 33.85 5.04298 13.1885
134 1 9.14956 4.09206 12.1334 -22.1315 0.280375 2.11526
135 1 10.1823 3.69188 10.9334 -6.10749 -4.93499 -10.9089
136 0 10.4851 7.23432 4.22775 25.7874 23.376 -26.0734
137 1 10.6737 7.14804 5.20602 -2.26067 -4.65604 23.5878
138 1 9.60406 6.80972 4.01937 -25.5221 -17.5434 2.79008
139 0 0.75467 7.86903 8.35915 -6.72091 -18.5845 -14.3561
140 1 1.62411 8.0361 8.82408 17.8948 7.57306 7.17542
141 1 0.15603 8.66134 8.47696 -2.51603 19.1598 3.90269
142 0 0.81917 0.13812 15.854 11.0871 13.7601 -29.7663
143 1 1.14262 18.5766 16.7826 -0.106029 -9.62254 27.2905
144 1 18.6113 18.2266 15.6792 -8.06136 -3.71354 4.93991
145 0 8.61923 3.46442 2.34571 -2.22149 9.74497 17.9975
146 1 9.10946 4.02948 1.68211 5.76326 1.04136 -14.9981
147 1 8.17872 2.70132 1.87282 -0.591701 -8.4358 -10.7018
148 0 16.7452 5.74019 18.1349 -1.9029 -25.1746 26.4416
149 1 16.655 6.57872 17.5975 0.0231148 20.6919 -18.5861
150 1 16.9095 4.96745 17.5218 5.50534 -2.74053 -7.93691
151 0 13.98 11.5113 4.89615 5.65019 -33.2452 18.3454
152 1 14.8806 11.5824 4.46755 15.1527 3.30557 -3.62304
153 1 13.4108 12.2804 4.60536 -15.6527 20.2149 -9.02997
154 0 5.63861 1.56714 9.80614 0.184206 -35.5877 -56.102
155 1 5.528 1.83991 10.7618 2.42927 13.8962 31.7519
156 1 5.41188 2.33815 9.21104 0.341754 10.7991 1.04763
157 0 10.0619 14.6203 4.84132 13.4187 -24.9739 -3.30849
158 1 9.77552 15.3518 4.22247 -10.712 16.1606 -4.42522
159 1 9.66309 14.7735 5.74549 -8.43535 10.6244 8.96686
160 0 3.546 18.0998 9.31785 -36.8357 10.6217 1.36223
161 1 3.97195 17.2204 9.10534 15.6796 -18.8405 -1.58962
162 1 4.25685 0.15835 9.50086 20.5776 8.25447 0.387027
163 0 17.8931 10.4001 8.97551 33.8397 -2.33103 19.2194
164 1 17.7243 10.3837 7.99 -10.9026 -3.39089 -18.4197
165 1 17.0207 10.376 9.46362 -17.8212 5.3436 5.57261
166 0 12.0655 15.7538 14.8537 19.6686 27.0614 -2.7112
167 1 12.2166 14.8442 15.2405 -9.97805 -17.7254 5.84033
168 1 11.192 15.7682 14.3669 -11.8252 -5.45487 -3.44982
169 0 2.89433 9.18191 2.69173 -6.71329 23.8869 11.7517
170 1 3.67021 9.46254 2.12671 11.9287 1.75467 -9.26163
171 1 2.6958 8.2154 2.52904 -4.49088 -25.4855 -10.1031
172 0 14.8462 7.88669 7.44717 -17.1156 20.8859 -30.1941
173 1 14.8048 7.08951 8.04949 0.55195 -14.8306 21.9253
174 1 15.797 8.17979 7.34709 13.5126 2.72088 1.87811
175 0 4.80055 12.8109 17.4409 38.6513 -0.286061 16.949
176 1 4.28508 12.684 16.5935 -17.826 0.61787 -19.8701
177 1 4.23115 13.2902 18.1088 -11.6947 1.75431 3.30989
178 0 11.2787 17.9425 1.96828 -2.38026 27.2964 9.793
179 1 10.8317 17.4264 2.69889 -4.31081 -12.5132 3.81191
180 1 11.4648 17.3345 1.19642 4.53755 -20.3245 -5.98997
181 0 2.1666 2.72322 15.389 16.0474 2.59182 -25.2698
182 1 1.72854 3.40107 15.9794 -9.45661 0.7475 15.5123
183 1 1.81605 1.81297 15.6093 -14.6452 -13.1167 11.4748
184 0 16.2818 13.5242 1.03572 36.9209 -4.23299 4.98321
185 1 15.9212 14.4511 1.14018 -16.0446 11.8556 0.265576
186 1 15.5551 12.9183 0.71205 -17.9389 -2.3685 -4.58295
187 0 5.01504 17.8713 2.90474 -33.8674 2.13082 -7.79801
188 1 5.45015 18.1338 3.76599 12.1741 7.09523 12.9648
189 1 5.68241 17.4078 2.32182 15.8637 -13.7257 -3.78931
190 0 14.2212 0.75728 4.61531 -16.0994 10.5429 34.0602
191 1 14.1417 0.58645 3.63323 2.03467 -2.34598 -27.6695
192 1 15.1058 0.42374 4.94113 12.827 -3.47969 0.540087
193 0 2.61428 18.0774 11.9089 -17.3621 12.705 19.9096
194 1 2.98394 17.1846 12.1663 7.73467 -14.6097 1.05703
195 1 2.89051 18.2952 10.9728 9.48834 -6.1037 -16.8519
196 0 9.87768 16.8773 8.78821 -24.6324 31.8917 6.01416
197 1 10.8095 16.6035 9.02662 17.8814 -12.4524 -0.599641
198 1 9.47532 16.1943 8.17852 -1.21933 -11.6341 -7.4924
199 0 3.88923 6.60636 4.67181 27.4176 30.2674 -7.82938
200 1 3.87337 5.63373 4.90361 -6.42076 -27.9539 7.36427
201 1 3.01111 7.0205 4.91139 -15.7092 -3.16944 4.66003
202 0 15.1487 2.41366 17.4512 12.7907 21.6626 -45.3368
203 1 14.957 2.83585 18.3372 -5.35185 -0.812722 32.0625
204 1 14.8818 1.45027 17.4762 -7.3901 -21.3774 14.1653
205 0 6.52975 1.44668 0.78134 -10.7081 26.8781 4.15352
206 1 7.34534 0.96606 1.10355 19.7662 -13.7418 4.34844
207 1 5.90952 0.79503 0.34469 -10.9207 -16.0004 -8.42858
208 0 7.92108 2.65196 17.3318 -7.74508 24.8257 -25.1403
209 1 8.87839 2.3629 17.3307 13.7196 -12.582 3.51404
210 1 7.41063 2.11211 18.0011 -7.89012 -6.71709 16.1853
211 0 8.68971 15.2705 11.7423 -10.7387 16.2761 0.15283
212 1 8.28383 14.6567 11.0652 1.98239 -9.51246 -6.77384
213 1 9.35778 14.7672 12.2904 7.36519 -10.4036 4.83114
214 0 13.1991 6.00222 14.3108 -22.0873 -16.2933 -13.6878
215 1 13.6426 5.67428 15.145 11.7797 -3.8332 19.7497
216 1 13.4456 6.95895 14.1563 10.9717 20.8669 -3.75622
217 0 8.05601 13.3272 9.10385 3.8771 -14.0185 43.9013
218 1 8.95941 13.6404 8.81105 19.7011 2.71849 -12.9564
219 1 7.36071 13.6864 8.48133 -13.3475 10.5499 -23.5777
220 0 9.41003 4.95663 8.81662 7.49867 47.7198 44.5357
221 1 9.19797 4.89193 7.84151 -12.2948 -16.0919 -31.8796
222 1 9.58486 4.04199 9.18114 0.424191 -27.683 -5.1814
223 0 5.82254 0.83286 4.98343 20.1546 -15.1788 0.817987
224 1 5.12248 0.86537 5.69678 -19.3374 0.189249 9.8171
225 1 5.62335 1.52445 4.28914 -8.36039 15.9507 -11.9919
226 0 13.9627 12.1592 0.34906 26.5706 6.37693 -37.5783
227 1 14.3304 11.5545 1.05557 2.34743 -15.7096 15.6849
228 1 13.0718 12.5083 0.63963 -21.0987 3.01507 18.7054
229 0 2.96857 0.55383 1.72527 -38.7575 -7.55827 5.07466
230 1 3.37907 1.23033 1.11385 13.3875 14.1783 -12.9823
231 1 3.69134 0.05016 2.19845 25.4208 -6.01381 7.21757
232 0 9.80738 2.65418 4.60884 -16.8367 -18.0323 35.2011
233 1 9.48252 2.89878 3.69525 -4.8172 9.86072 -23.1722
234 1 10.8072 2.66996 4.62243 19.1518 6.7416 -5.90828
235 0 10.6205 6.94444 14.3708 -3.55075 23.4103 -5.55994
236 1 9.98467 6.24464 14.6964 -9.63854 -11.0297 0.276794
237 1 11.5437 6.56248 14.329 18.7486 -12.9902 -0.0243648
238 0 12.2316 15.9068 7.77323 -20.7475 -28.4041 3.18457
239 1 12.254 16.7533 7.24126 7.90037 22.1661 -11.4747
240 1 13.1565 15.6806 8.0788 14.3471 -1.0571 5.51892
241 0 5.10436 11.2254 6.96425 34.8192 17.7189 -6.66513
242 1 4.39116 11.0823 7.65045 -22.3283 -8.46139 14.6651
243 1 4.70716 11.1489 6.04971 -16.6202 -4.39193 -11.1606
244 0 12.3651 18.152 6.28434 3.04589 -33.6123 5.5629
245 1 12.8963 0.05333 5.61697 11.4488 16.011 -9.87104
246 1 11.6388 0.10871 6.65726 -11.3598 17.4722 3.72332
247 0 10.3567 5.08725 0.29548 -13.0012 -25.8875 -24.739
248 1 9.87099 5.94414 0.12282 -3.89611 19.5767 5.52389
249 1 10.7807 5.12092 1.20054 10.6639 8.45506 21.0397
250 0 1.04533 5.98366 13.6831 -26.8039 -16.811 -13.0477
251 1 1.98221 5.65684 13.5587 23.4638 4.28177 2.30678
252 1 1.01264 6.61522 14.4577 5.09018 12.0492 14.9494
253 0 5.49417 2.17409 12.24 9.67006 17.2791 -14.0702
254 1 5.94953 1.75468 13.0253 2.8658 -3.45072 20.4692
255 1 4.51874 2.27581 12.4354 -19.8878 -2.58442 13.3959
256 0 8.55294 4.46805 6.44835 -0.118693 2.074 12.8514
257 1 8.00951 5.15935 5.97214 -6.08798 6.31757 -10.3856
258 1 8.93264 3.82572 5.78258 5.3936 -9.2689 -16.39
259 0 10.153 0.76487 7.41846 25.7517 24.2542 8.35979
260 1 9.4223 0.82231 6.73817 -15.3896 -9.14505 -10.2126
261 1 10.1194 18.4934 7.86919 -8.50851 -19.4557 9.16642
262 0 14.2624 11.7496 8.23549 9.33131 14.8261 20.2277
263 1 13.3938 11.2553 8.26999 -14.5333 -9.36492 -6.68609
264 1 14.6749 11.636 7.33165 -1.09721 -4.6972 -12.2257
265 0 14.3011 6.24273 9.46219 -5.93748 23.1372 -22.7585
266 1 13.6248 5.50623 9.47558 -8.37956 -18.2167 6.59319
267 1 14.9997 6.06638 10.1556 11.4324 -7.78037 20.1531
268 0 18.1294 7.82293 3.89312 -16.1043 32.1775 1.84584
269 1 0.22683 7.39553 4.4425 13.3842 -15.4896 14.1496
270 1 17.835 7.18901 3.17795 -1.39066 -17.3609 -10.9178
271 0 4.93898 14.0888 1.60589 19.3613 17.9712 -6.39521
272 1 4.00811 14.0197 1.96463 -18.2777 -12.741 8.9357
273 1 5.41618 13.2216 1.74785 -6.60791 -12.0966 2.13191
274 0 17.4216 12.6469 6.51069 -31.4006 -10.7294 -3.725
275 1 18.4154 12.6094 6.40597 27.9844 -2.7485 4.29646
276 1 17.1362 13.5958 6.64553 -1.11778 14.836 0.87514
277 0 13.3929 5.50568 0.88918 9.48302 29.6672 -34.3371
278 1 12.6745 5.46315 1.58358 -10.0281 -9.87396 19.6696
279 1 13.9225 4.65762 0.90512 7.24441 -17.9183 11.9018
280 0 5.30226 2.84887 2.8882 1.74494 -14.0714 36.9187
281 1 5.71257 2.3465 2.1271 5.27294 -2.83645 -21.0442
282 1 5.02104 3.7562 2.57569 -8.04108 13.8691 -13.4305
283 0 17.2105 12.6635 15.2827 -27.8301 -16.4933 -6.8467
284 1 18.0349 12.1263 15.4608 18.7827 3.08671 0.86476
285 1 17.4069 13.6334 15.4269 8.81614 14.2145 7.60135
286 0 10.1204 13.3657 13.525 4.78599 9.33476 -24.2044
287 1 9.22172 13.3084 13.9598 -14.6879 -7.10186 12.6335
288 1 10.832 13.1952 14.2065 7.01223 -5.00279 12.5808
289 0 16.0176 16.4466 16.9879 -28.376 22.7095 32.1527
290 1 15.4365 15.9908 16.3137 2.34707 -10.1456 -12.8848
291 1 16.97 16.1785 16.8426 17.4668 -14.8221 -16.6174
292 0 11.5666 12.8808 11.2675 29.6138 -8.97424 -19.5491
293 1 11.0693 12.7988 12.1312 -18.2459 8.56477 19.0529
294 1 10.9325 13.1476 10.5417 -10.1556 4.0806 -7.74182
295 0 15.6959 10.9347 10.6256 17.0107 -28.0764 4.87666
296 1 15.6618 11.6159 11.3568 -6.52988 16.7145 7.13945
297 1 15.0497 11.1864 9.90513 -12.4435 10.1577 -13.0808
298 0 9.11035 1.03143 13.5187 -31.7384 -9.35363 11.8541
299 1 9.36347 0.73845 12.5967 13.2537 -6.43391 -17.8907
300 1 9.92622 1.34482 14.0047 25.1591 9.34777 2.88944
301 0 9.83694 11.4865 16.8257 17.2306 13.4581 3.58839
302 1 8.94394 11.6841 17.2301 -15.2075 -6.36934 4.35511
303 1 9.83448 10.5604 16.4484 -6.50453 -14.0274 -2.27441
304 0 7.11332 10.0052 4.06158 -28.4855 25.9581 -32.4583
305 1 7.12088 9.80818 5.04194 6.35942 -11.4079 26.736
306 1 7.91794 9.59445 3.63279 23.9208 -6.91177 -5.74095
307 0 4.36106 8.33329 12.5847 -18.6131 29.5642 -26.055
308 1 5.10135 8.56575 13.2156 13.5393 -8.71413 18.2953
309 1 4.16555 7.35453 12.6464 -0.801604 -24.3416 11.9585
310 0 12.5436 3.68593 13.0859 26.509 -36.5154 -4.95383
311 1 12.8409 4.44141 13.6697 0.817775 26.5758 5.4503
312 1 11.696 3.93884 12.6193 -24.3461 10.7613 -10.3106
313 0 0.74083 15.7282 13.508 -7.89477 -27.628 33.2757
314 1 0.25653 16.4443 13.0054 -7.30966 14.1806 -18.7698
315 1 1.71519 15.766 13.2862 20.3678 3.68562 -6.5347
316 0 3.21545 10.9586 4.54167 11.4785 23.1541 53.8255
317 1 2.9816 11.737 3.95917 -2.6441 7.72275 -19.3049
318 1 3.07724 10.1085 4.03341 -3.37842 -14.6789 -23.6795
319 0 5.33525 5.05012 8.63518 -17.8523 -18.8647 5.97802
320 1 5.55312 5.4832 7.76055 11.4629 10.8923 -13.7798
321 1 6.08459 5.20411 9.27922 16.9664 8.90424 4.78782
322 0 12.4337 13.491 4.26577 4.86037 -32.6656 -25.3136
323 1 13.2153 14.0719 4.49293 10.0527 25.1137 10.4403
324 1 11.6063 13.8674 4.68257 -19.2241 15.6753 7.68701
325 0 13.5572 14.7681 11.6365 10.638 23.2147 -16.5036
326 1 14.0648 14.6627 12.4916 0.13629 -7.42388 11.193
327 1 13.0142 13.9455 11.4677 -16.2324 -19.615 8.45605
328 0 15.0651 6.39218 4.75631 9.95438 -8.639 19.2061
329 1 14.6864 6.765 5.60343 -4.45899 9.26135 4.82614
330 1 14.7641 6.94991 3.98279 -11.8889 15.0709 -10.6567
331 0 3.45475 15.4267 12.7923 -34.5855 18.7231 15.9701
332 1 3.29346 14.7119 12.1118 7.78437 -15.6582 -16.441
333 1 4.43727 15.5944 12.8731 24.4748 -3.03792 -3.24902
334 0 4.56915 6.69535 16.0641 -22.2665 20.0143 13.2395
335 1 5.29717 7.04374 15.4737 10.5615 2.08325 -9.88119
336 1 4.61944 5.69733 16.1018 5.52638 -15.2859 -4.96979
337 0 16.4552 7.91252 16.681 6.71327 -17.855 28.9951
338 1 15.5615 8.34785 16.572 -18.1825 10.8252 -9.17565
339 1 17.0632 8.21085 15.9453 -1.16216 10.7295 -17.5896
340 0 10.3815 1.26594 17.4952 -35.904 3.84067 15.212
341 1 10.9968 2.05258 17.4443 17.4379 11.1971 -3.98136
342 1 10.8358 0.46196 17.1115 18.4701 -11.9043 -9.99376
343 0 4.80765 18.4139 17.7642 35.7214 -13.4033 10.0817
344 1 4.30339 17.7274 17.2404 -13.3526 -3.28802 -8.22658
345 1 4.25712 0.62462 17.8411 -17.3438 18.2301 -1.0616
346 0 5.89009 8.61778 10.3631 16.0776 -26.2776 -25.5261
347 1 6.41791 9.46155 10.4603 2.8637 20.6012 1.69607
348 1 5.13113 8.6225 11.0142 -10.5718 5.12567 22.3015
349 0 12.5967 8.81183 9.65687 9.80205 25.722 6.63462
350 1 11.7239 8.32501 9.69116 -10.5716 -18.1387 -4.97425
351 1 13.2992 8.21025 9.27663 5.64641 -13.3204 -4.4504
352 0 11.5269 5.1915 2.77695 -2.97098 -7.66155 -37.8841
353 1 11.8547 4.44736 3.35905 8.8145 -11.5713 19.8639
354 1 11.3225 5.9911 3.34161 -6.63283 14.105 18.542
355 0 2.70923 1.94945 12.828 13.9361 25.7235 -26.4478
356 1 2.40155 2.27473 13.7222 -5.47523 4.31326 21.6482
357 1 2.56373 0.96214 12.7643 -1.42347 -25.2904 -1.411
358 0 0.27348 13.1629 12.4002 -9.17473 -14.2668 -22.5106
359 1 0.55547 12.5982 13.1759 7.00238 -3.89857 13.8883
360 1 0.18178 14.1137 12.6961 5.96016 14.4338 11.2385
361 0 7.25925 6.02391 10.3944 -9.40745 -19.6382 18.1449
362 1 7.97853 5.91118 9.70888 15.1396 0.70213 -14.2145
363 1 6.89989 6.95607 10.3503 -6.34495 21.3405 -5.72759
364 0 17.6154 9.48667 0.09108 24.0117 11.9481 -5.78337
365 1 17.228 8.8224 18.0724 -11.5037 -11.511 -5.49207
366 1 16.8975 9.81782 0.70347 -11.4221 1.40721 8.59421
367 0 3.51816 0.35396 6.59291 17.7743 -14.2338 -26.6279
368 1 2.89913 1.13897 6.61675 -14.9445 19.7114 7.81347
369 1 3.50474 18.5124 7.47961 -4.20353 -0.780752 16.8611
370 0 16.13 4.39607 3.60516 17.5384 -35.657 -45.8778
371 1 16.713 3.75577 4.10523 5.77005 -7.82425 13.8109
372 1 15.8242 5.12066 4.22281 -15.7116 24.796 19.5322
373 0 10.3111 7.30955 9.56721 28.2793 36.5775 -22.9311
374 1 10.0905 7.45988 10.5309 -11.9193 -6.38744 31.0217
375 1 10.1117 6.36035 9.32376 -11.3971 -30.6585 -1.06636
376 0 9.94382 15.8408 17.4057 6.63527 10.1579 30.4124
377 1 9.76791 16.2537 16.5121 1.17331 1.91347 -28.3429
378 1 10.3369 14.9298 17.2805 4.72494 -16.0835 -17.5816
379 0 18.2116 15.3584 15.9973 -21.1518 -5.62868 14.1068
380 1 18.6001 15.4747 15.0833 16.6517 4.06032 -19.7783
381 1 0.32983 15.2451 16.6616 16.7337 -2.85583 0.81936
382 0 3.48676 8.66936 17.6373 -24.6731 23.5891 12.8534
383 1 4.2615 9.17762 18.0133 9.26363 -0.893648 -0.806763
384 1 3.82446 7.90043 17.0944 17.7418 -14.1579 -14.048
385 0 14.8109 3.20596 1.38703 -6.83338 8.45106 -33.4614
386 1 14.4764 2.30349 1.65845 -5.58535 -15.2352 14.4352
387 1 15.377 3.58556 2.11872 8.48851 7.25796 22.5785
388 0 12.925 8.04573 18.5978 -13.3417 13.7295 22.8456
389 1 13.1783 7.07976 0.02973 5.72721 -21.6954 3.68504
390 1 13.3542 8.45971 17.7951 10.7398 2.30403 -22.4233
391 0 10.6637 13.6027 8.37283 -24.3222 12.9508 17.7861
392 1 11.1089 12.7397 8.13375 7.94561 -19.6506 -10.0452
393 1 11.1875 14.3647 7.99206 16.2831 11.2242 -5.95207
394 0 3.39811 7.94616 9.40506 -28.7266 17.6053 -3.53115
395 1 4.37485 8.13433 9.30231 19.0295 -4.11828 1.6092
396 1 3.27434 7.05177 9.83488 4.73558 -17.3198 1.98206
397 0 3.1112 5.06001 9.95178 -26.9434 44.1455 34.5554
398 1 2.74209 4.13218 10.0056 -6.02043 -28.7252 -4.03342
399 1 3.98328 5.04398 9.46268 25.4648 -7.82843 -23.1963
400 0 4.66326 4.55237 17.9247 -7.24039 -18.6455 -27.0074
401 1 4.31271 4.758 0.21783 1.14485 11.957 24.4492
402 1 5.55093 4.99581 17.8007 16.4117 12.3912 2.45683
403 0 11.6897 3.71024 16.9478 -14.6693 -42.9243 -22.0193
404 1 11.0965 4.09775 17.6535 -5.24421 22.6547 19.6328
405 1 12.4719 4.31556 16.8005 17.1607 14.2573 4.12603
406 0 11.4334 1.92627 14.6978 -18.3433 -43.4135 10.8887
407 1 11.3924 2.4741 15.5334 4.66589 19.1945 8.18964
408 1 11.9028 2.44394 13.9825 13.217 21.8461 -12.1105
409 0 0.16144 12.7062 2.07613 14.3595 25.5388 -12.9121
410 1 17.8893 12.8819 1.66121 -25.6368 -0.922581 -4.17898
411 1 0.15765 11.803 2.50534 -4.47364 -25.126 8.5243
412 0 0.51547 17.4621 9.58217 -5.31767 26.0488 16.4719
413 1 0.39711 16.612 9.06905 -1.54973 -29.0662 -16.2478
414 1 1.48584 17.7021 9.61036 16.4602 -4.58755 -5.54364
415 0 4.84853 15.642 8.89995 -52.2022 -9.49852 23.2392
416 1 5.52514 16.3783 8.8943 30.4528 14.6876 -7.79627
417 1 5.12798 14.9276 8.25848 20.8859 -7.46258 -14.1771
418 0 9.37543 7.72348 12.0476 -2.80795 12.9036 -30.5523
419 1 9.95551 7.52769 12.8383 6.65154 -7.36112 23.2029
420 1 8.50534 7.24025 12.1447 -3.80804 -4.97633 7.79004
421 0 0.18847 5.40894 11.1577 -30.0028 1.68928 -23.0378
422 1 0.94617 5.25351 10.5239 14.6566 -1.34832 -0.0371025
423 1 0.55108 5.61504 12.0666 12.6088 4.89487 20.6118
424 0 1.93416 6.22833 17.8075 -9.86189 -22.965 20.4841
425 1 2.8355 6.17924 17.3772 9.50526 4.02361 -8.18961
426 1 1.47018 7.06446 17.515 -2.14754 12.0023 -14.7578
427 0 13.9416 9.08843 16.3036 9.8819 -16.0608 38.5177
428 1 14.0173 10.0783 16.4237 -0.828692 18.3985 -8.64316
429 1 13.8129 8.87917 15.3342 -3.82006 2.37263 -28.0542
430 0 8.19925 5.85828 3.61902 21.7506 15.517 20.8161
431 1 8.23877 4.93821 3.22926 -3.7464 -17.8062 -9.49215
432 1 7.34328 6.29861 3.34806 -18.409 5.41337 -9.9796
433 0 16.0838 5.95048 11.5063 -22.4012 17.0788 -9.12472
434 1 15.8137 5.3686 12.2734 4.31559 -7.35031 7.70381
435 1 17.0807 5.95874 11.429 21.9851 -12.2837 3.44258
436 0 2.33937 15.1102 17.1928 -1.03889 11.4694 -27.9516
437 1 2.00631 15.8173 17.8166 -0.541976 5.17182 15.4436
438 1 2.253 14.2141 17.628 -4.35976 -19.5896 15.664
439 0 7.51554 4.34569 12.4915 21.1574 -5.46082 28.762
440 1 6.88596 3.57352 12.4056 -13.5074 -8.93499 -5.9708
441 1 7.38054 4.97281 11.7244 -11.0881 13.676 -22.5854
442 0 9.17221 16.9804 14.9154 14.2712 -13.991 19.301
443 1 8.22068 16.7929 14.6717 -8.67101 1.99721 -6.28035
444 1 9.46075 17.8405 14.4947 -5.72908 10.5985 -9.6293
445 0 4.2966 5.36139 1.8789 5.69127 -52.2888 -22.0865
446 1 5.02471 5.91964 2.27666 9.63772 25.8033 8.44037
447 1 3.41451 5.80802 2.02869 -17.7425 16.9412 8.64187
448 0 1.09899 11.4216 14.7963 -24.881 51.3558 -18.1859
449 1 1.2605 11.196 15.757 10.4833 -19.4879 24.1718
450 1 1.31413 10.6282 14.2268 14.011 -23.636 -12.8656
451 0 12.3596 10.3359 11.8186 9.80631 -2.31589 50.6059
452 1 12.4529 9.74386 11.0181 2.68338 -10.4663 -27.7463
453 1 12.168 11.2712 11.5209 -7.82703 16.3861 -15.8852
454 0 13.6492 8.10172 3.05264 20.1319 3.28533 5.36646
455 1 12.8657 8.23457 3.65977 -9.76477 1.4984 1.33063
456 1 13.3272 7.99055 2.11244 -9.06356 -2.75039 -11.5559
457 0 17.7523 16.853 11.7761 -15.0261 27.0915 44.5455
458 1 18.2073 17.1846 10.9497 11.0585 -0.4873 -25.0183
459 1 17.3866 15.9371 11.6105 -7.91355 -16.7057 -21.0218
460 0 12.4756 17.0874 10.6767 -35.1746 18.4411 -12.4971
461 1 13.3399 17.5892 10.6436 24.8304 0.507815 3.23702
462 1 12.5785 16.2847 11.2641 13.6667 -14.3732 5.88457
463 0 1.19914 12.1108 9.92221 34.7602 17.2997 -9.41873
464 1 0.8634 12.5586 10.7509 -15.5793 2.51404 19.0294
465 1 0.51508 11.4588 9.59512 -25.1122 -13.5488 -4.64171
466 0 7.58197 16.6905 18.0625 -32.8321 0.367567 13.0825
467 1 7.18687 17.5299 17.6893 -3.22911 8.38217 -6.20147
468 1 8.54501 16.63 17.8 25.6182 -5.25981 -6.99396
469 0 9.08433 0.80241 1.20933 -41.0135 7.1537 17.0792
470 1 9.44058 0.92687 0.28327 22.2038 -0.753717 -16.968
471 1 9.6559 0.14536 1.70086 20.1808 -6.74826 -0.755333
472 0 17.6705 2.14936 4.5016 -7.78185 31.2452 10.6288
473 1 17.7439 2.05221 3.50905 11.1421 -8.33041 -14.2859
474 1 17.4425 1.26419 4.9072 -4.85046 -22.0309 5.54278
475 0 14.1121 15.4718 5.08575 -10.7393 -17.7292 12.5222
476 1 14.7792 15.9464 4.51143 15.2485 12.2538 -19.6602
477 1 13.3852 16.107 5.34681 -5.28403 11.0247 1.17122
478 0 1.62997 17.8054 18.3389 11.0883 17.8949 -46.6103
479 1 0.94825 17.1807 0.09918 -13.9399 -16.7005 19.6502
480 1 2.1523 18.2225 0.46208 6.79919 7.73987 19.7049
481 0 12.9087 9.39231 6.04888 -43.3117 -21.5094 7.6018
482 1 13.6505 8.99573 6.58964 20.7496 -7.90349 8.05887
483 1 13.2828 10.071 5.41696 18.5816 21.7224 -10.3795
484 0 7.43777 12.8262 14.3731 24.6921 -25.119 -8.4774
485 1 7.29653 13.4757 15.1202 -10.1225 20.8094 14.7024
486 1 6.82257 13.049 13.6168 -11.9374 3.17973 -7.01882
487 0 6.77899 16.0345 1.84936 13.0912 17.6396 38.7337
488 1 7.15709 16.2074 0.93989 0.2452 3.1618 -33.1505
489 1 6.04054 15.3636 1.78133 -20.5407 -20.5736 -12.1104
490 0 16.1754 17.643 14.0012 -2.34325 -25.838 9.99971
491 1 16.7293 17.4975 13.1814 12.381 1.09382 -12.2825
492 1 15.9448 18.6129 14.0799 -6.66449 21.9903 2.68935
493 0 18.4494 1.25096 9.96994 26.7709 45.576 22.1374
494 1 18.6202 0.28194 9.79159 0.641504 -29.4559 -9.0846
495 1 17.5423 1.49777 9.629 -29.802 -0.316435 -11.5802
496 0 2.05747 2.68434 6.88326 29.1714 -22.6428 -11.1479
497 1 1.11344 2.97794 6.73288 -20.6236 15.9065 0.593796
498 1 2.32344 2.8869 7.82572 -5.74982 7.09692 10.8811
499 0 12.018 15.6159 0.60607 21.4054 24.756 10.8252
500 1 11.9508 14.6741 0.93551 -5.09428 -19.5641 3.89919
501 1 11.4009 15.7422 18.45 -13.4513 -2.26749 -12.2829
502 0 8.44751 10.2515 14.1517 -0.357698 -31.8923 9.47441
503 1 8.98758 10.2599 13.3102 3.84131 4.89869 -6.70333
504 1 7.97729 11.128 14.2548 -6.11637 26.8095 -0.484569
505 0 9.41658 9.41471 2.74106 -28.8782 7.27622 7.86126
506 1 10.0012 9.60806 1.95316 18.224 1.886 -15.5832
507 1 9.82363 8.68193 3.28636 15.5183 -12.6481 4.93147
508 0 14.956 16.0943 1.06005 17.8351 -9.87847 26.0388
509 1 13.962 16.1977 1.09495 -16.47 -1.29179 -8.99885
510 1 15.2837 16.33 0.14516 -0.327811 4.73274 -18.5284
511 0 3.48486 13.013 15.0694 13.907 -2.06932 9.75871
512 1 3.69939 13.921 14.7096 -4.00274 4.84256 -6.09612
513 1 2.56599 12.7473 14.7777 -9.38956 -5.27752 -4.00527
514 0 15.8794 13.0348 12.6041 -10.3338 -7.61572 -24.7522
515 1 16.8091 12.6845 12.7176 14.392 2.10954 8.84636
516 1 15.6398 13.6053 13.3897 -0.255349 5.86084 15.7348
517 0 11.2999 11.0071 7.67793 9.02149 26.3745 11.0268
518 1 10.5631 10.4544 8.06739 -12.7141 -11.6097 1.71121
519 1 11.6523 10.5607 6.85543 5.61811 -13.7672 -9.65118
520 0 9.96548 2.48985 9.50826 9.17131 35.2841 18.9239
521 1 10.015 2.07121 8.60146 -0.529089 -23.6667 -17.7248
522 1 9.86923 1.77482 10.2007 -1.99859 -20.871 3.70875
523 0 6.31038 14.7327 4.6543 5.15221 14.0924 25.5426
524 1 6.81259 14.2249 3.9543 4.68108 -11.6354 -11.7543
525 1 5.3344 14.724 4.43657 -7.85319 -2.08095 -7.3276
526 0 17.59 3.89939 14.0385 -25.8795 9.30293 14.6133
527 1 18.3737 4.51772 14.0985 13.5815 10.0723 -8.03965
528 1 17.8323 3.10764 13.4778 11.1929 -16.07 -17.713
529 0 2.51485 13.2532 2.94299 52.5477 -14.8915 -19.4041
530 1 1.63266 13.171 2.47933 -27.5832 -2.42235 -0.670881
531 1 2.38308 13.6823 3.8366 -6.45002 18.3191 23.0047
532 0 1.31487 10.4139 17.2193 -3.55029 32.8901 -12.8245
533 1 0.48881 10.0647 17.6617 -13.1527 -15.2916 17.1684
534 1 2.09419 9.83808 17.4665 15.3724 -20.9889 7.96422
535 0 6.83589 1.83388 14.595 -51.6148 3.98384 4.88285