ITEM: TIMESTEP
0
ITEM: NUMBER OF ATOMS
648
ITEM: BOX BOUNDS pp pp pp
0 18.6206000
0 18.6206000
0 18.6206000
ITEM: ATOMS id type x y z fx fy fz
1 0 2.0035700 6.7873800 1.9591000 22.801033433 5.338091514 22.024053271
2 1 1.0535300 6.6152000 2.2194300 -18.075738023 -8.169099067 -7.095044430
3 1 2.0782900 6.8035500 0.9620300 -10.005633650 -6.057435826 -21.465005374
4 0 2.0567100 2.6690200 10.1466000 30.639668853 23.874735775 -20.493188285
5 1 2.3737200 2.2766500 11.0100600 -2.989695315 -8.033866944 19.071528654
6 1 1.1640300 2.2835500 9.9131100 -22.985285513 -17.734574256 4.074125501
7 0 18.2388800 3.9120100 6.4925600 28.799327601 9.589747035 7.935323039
8 1 17.5087600 4.1963000 7.1139300 -11.446314960 1.019743881 3.386233819
9 1 17.8853600 3.2293300 5.8530400 -9.579144645 -13.032997082 -16.149827937
10 0 5.7162400 13.1016600 11.9905000 26.225146554 -26.417205971 14.737371723
11 1 4.9544200 13.1157400 11.3428500 -20.771709318 9.447675453 -9.556182790
12 1 5.8046400 14.0000400 12.4207300 -3.445905759 20.095885011 -1.444244574
13 0 16.2128000 15.2216600 6.7799400 43.974021193 0.222173662 10.291833674
14 1 15.6939400 14.9540800 7.5918400 -22.020127721 -2.356199928 6.953565845
15 1 15.5822200 15.5328800 6.0689600 -20.913728391 -4.585374426 -7.396411352
16 0 17.5376200 5.9792600 8.5274100 -39.018252432 -27.020882190 -11.183910467
17 1 18.1284000 6.7323200 8.2377700 21.225804155 14.747460610 3.720291897
18 1 17.7357500 5.7474700 9.4797800 10.484430663 2.513990176 10.464462952
19 0 11.2660800 7.2832800 6.8701400 -2.460101362 -27.066501000 -16.688187497
20 1 11.6915000 8.1314700 6.5545700 12.613956595 19.906025403 0.732478322
21 1 10.8432600 7.4347600 7.7636100 -5.039420769 5.683661878 14.221121389
22 0 17.8601700 5.7856300 1.9755900 34.930895477 21.769658911 21.199155255
23 1 17.4816700 5.7505100 1.0506600 -16.041052913 -3.145834225 -22.247037281
24 1 17.3238900 5.1943200 2.5778900 -18.839885346 -12.857790892 4.150867279
25 0 7.0145300 11.2650600 10.3622900 0.636779923 -59.426016267 4.201754110
26 1 6.4315800 11.6545100 11.0753800 -4.523552987 21.139662019 9.211835252
27 1 7.4845600 12.0020500 9.8765800 6.643203393 29.418169235 -9.684980257
28 0 8.7695700 7.6137300 0.0888900 -8.727096653 -35.929176213 17.412589027
29 1 8.7526000 8.3723700 0.7401700 2.714438288 10.695063956 0.267078657
30 1 9.0022500 7.9598000 17.8005900 7.880740773 18.117495480 -20.265539098
31 0 7.1525400 9.5146200 6.6560700 4.271347538 -26.413383982 -26.647380302
32 1 7.7980400 9.4404700 7.4162300 12.075615294 3.544683795 18.094799854
33 1 6.5066100 10.2559400 6.8383700 -16.922040820 18.106452555 14.233116895
34 0 7.1921100 11.7166700 18.4911300 -3.232036902 -33.018207739 -3.778807026
35 1 7.8162500 12.3940600 0.2598800 13.595734223 20.256534079 8.760188240
36 1 6.4183600 12.1835800 18.0629900 -15.669262163 12.214352842 -12.214961160
37 0 3.5187100 13.7449400 10.5384800 3.973173494 -4.675122298 24.094949566
38 1 2.6519000 13.4537500 10.1337100 -10.748957670 -6.472464674 -9.071830759
39 1 3.9441700 14.4357800 9.9539100 6.565267590 14.618051217 -17.461211446
40 0 14.7860600 15.3588800 14.4476600 9.799503584 -36.655395381 1.811364149
41 1 15.4008800 16.1470500 14.4196300 8.344083531 26.476335966 -7.558482743
42 1 13.8380000 15.6762500 14.4688600 -17.414799065 9.894634702 0.441501745
43 0 4.4727200 3.9317500 14.8374400 22.747427817 25.196365723 -15.067642827
44 1 5.2816300 3.3504900 14.9257300 4.646952987 -10.011821031 2.641752629
45 1 3.6669500 3.4322000 15.1555500 -17.736192038 -14.495234008 7.562010061
46 0 15.6431900 4.0274200 7.8050900 6.891475979 -27.301906497 -2.097085683
47 1 14.8336600 4.3244000 7.2986700 -12.420776838 9.687552078 -4.904709440
48 1 16.1714700 4.8278800 8.0882800 4.588008603 22.375286971 6.306552341
49 0 2.5994500 17.3910500 4.4224200 -30.351928365 -19.144255900 -4.783003106
50 1 2.8675200 18.0155500 5.1559900 13.068522632 12.758945744 12.567914745
51 1 3.3181900 17.3648800 3.7276400 17.167698587 5.098387021 -5.900843594
52 0 11.4678400 13.5072300 16.5114900 14.282582503 44.636690265 -7.074838192
53 1 12.3826800 13.1925500 16.7645700 4.117470434 -10.886795170 1.606851697
54 1 10.8036500 12.7822600 16.6938400 -14.548876097 -30.421471099 3.417753943
55 0 2.4791800 14.6417000 5.1444600 5.776223350 -13.497526551 -0.155926291
56 1 2.2893000 15.6078700 4.9698900 -0.881118475 18.790762545 -0.281258795
57 1 2.2029800 14.4109800 6.0774500 -4.301387714 0.405753967 6.007383794
58 0 3.1579100 10.6921200 8.8250400 22.250412879 5.614776314 -28.922346124
59 1 3.2728000 9.8264900 9.3123700 -3.479426218 -13.578322273 6.085937380
60 1 2.5794500 11.3040700 9.3643900 -16.686722870 7.264434487 16.087156044
61 0 5.7862200 17.8005300 14.6378200 16.881995982 -16.694274950 -15.273691919
62 1 4.8789300 17.5803600 14.9960900 -19.152689074 0.580428107 9.584599019
63 1 5.9678500 0.1548500 14.7664600 -0.310746845 14.022531021 4.745296677
64 0 5.4688700 10.6711300 1.7701600 -28.191029991 -9.233499521 2.970644622
65 1 5.9537900 11.0391100 0.9767900 17.734034510 2.640543284 -11.294026862
66 1 6.0994900 10.6005500 2.5430300 11.680346270 -1.759260516 11.540336686
67 0 15.3728500 1.6268400 14.4167900 -4.387580186 -15.592782956 -2.735610229
68 1 16.1212600 2.0473700 13.9039200 7.198903393 9.681989028 -4.123253035
69 1 15.1082000 2.2263500 15.1721400 0.284891157 5.109574378 3.835087284
70 0 1.1345200 6.7590200 5.8095600 8.322000596 4.675908580 -30.858359699
71 1 0.9697900 5.7794600 5.9250000 -5.157206309 -10.848433746 9.443480018
72 1 1.2433500 7.1867700 6.7068800 -4.124758126 3.654791061 20.865245981
73 0 0.0722700 17.4033200 3.1403400 -20.439261732 -23.388372821 -7.468881117
74 1 0.9626000 17.4750600 3.5899700 20.066840795 7.081683507 10.860901169
75 1 18.4315600 18.2963200 2.7739100 6.231596079 16.835054060 -2.153948398
76 0 0.2789300 15.9070100 0.8188600 2.119346247 -5.174734225 -25.149509867
77 1 18.2982000 15.1092400 0.8631600 -5.177716323 -6.650993976 6.630625835
78 1 0.3940400 16.2890100 1.7358300 -5.970627031 3.428520793 22.245187544
79 0 17.2670800 9.3472500 6.5379900 -5.212060993 -4.956897131 23.713243519
80 1 17.4307800 8.5781900 5.9201300 4.866662045 -3.413225549 -15.822000308
81 1 17.1138700 10.1780100 6.0028600 -2.672342041 7.237220314 -15.590250523
82 0 16.7026900 11.2727500 4.3689400 -36.865164358 -15.892301599 -22.591950092
83 1 17.5143700 10.9330200 3.8938000 24.450633983 -1.990645984 -3.146651864
84 1 16.9702200 11.9839600 5.0190200 13.049657766 14.215904802 20.879111636
85 0 0.8083000 7.9621400 15.7817800 13.197558602 -33.413019402 11.744933555
86 1 1.6203900 8.4761300 15.5055300 3.780421151 10.108317565 -4.408729134
87 1 18.6091100 8.4360500 15.4602900 -6.092994932 17.794880040 -15.314251695
88 0 6.2777000 13.9099800 7.2935300 -7.036468044 11.547283363 24.041769929
89 1 5.8790800 12.9965900 7.2109200 -6.649417757 -19.446080853 -8.516585897
90 1 6.4114700 14.2989900 6.3820600 -1.227751745 0.522091730 -22.161204394
91 0 13.0466300 12.4392900 13.8382000 -15.153412976 14.376817923 -8.291526050
92 1 13.0575200 11.6854500 13.1812300 1.168203274 -8.771067040 -3.296755831
93 1 13.7033900 12.2539300 14.5691600 7.912386710 -6.286842088 15.393387330
94 0 8.3042100 0.1477000 5.5397400 34.068239980 -29.728987567 8.524391060
95 1 8.7590500 0.8805100 5.0336400 0.333945554 19.825767970 -9.032529181
96 1 7.3180300 0.3129500 5.5513800 -27.487579393 15.322242875 -7.837671892
97 0 1.8529400 9.5169600 13.0619700 -20.567067946 10.802233603 15.277248396
98 1 2.7283200 9.1655800 12.7299300 19.273218902 -9.134385228 -6.204011376
99 1 1.1234100 9.2384800 12.4372900 2.185289436 -4.917383293 -6.065040439
100 0 15.4696800 10.4062700 2.0072300 -2.190450239 8.800729062 -31.336972175
101 1 14.9840800 9.5604400 2.2280700 -5.383775621 -11.434453679 12.309259295
102 1 15.8848900 10.7787000 2.8372200 6.043133269 0.045548064 19.234282741
103 0 12.2212100 18.1715700 16.2935800 3.130369024 8.790507408 31.185901405
104 1 12.3731500 0.3510200 15.7132000 -1.792739221 6.111758436 -17.732845623
105 1 12.1989500 17.3480000 15.7268000 -1.982916109 -16.752404228 -16.253958243
106 0 3.6343200 2.1619600 18.2342900 1.857056620 -50.345998128 11.562216131
107 1 4.2453600 2.9129500 17.9840100 4.410362977 30.159857261 -5.589972752
108 1 2.6891100 2.4209000 18.0354700 -15.670636326 19.339940365 -4.617668785
109 0 14.3523100 14.4983400 8.9394200 22.357231713 25.250349160 -22.865677602
110 1 13.9604900 14.6767500 9.8420000 -12.176726647 -0.748340894 21.681076239
111 1 14.1560100 13.5551700 8.6713100 -5.010228489 -23.972027338 -0.312495913
112 0 17.0261000 18.4429000 5.8110200 -6.351559942 14.811829085 -8.760707551
113 1 16.9701600 17.4927700 5.5042400 1.814691252 -10.966512116 -1.064247849
114 1 17.5918400 18.4947100 6.6339800 2.108731286 -4.614728632 6.373602748
115 0 5.9011800 7.1861700 2.8328000 23.478984652 -11.007855997 -12.773110443
116 1 6.0860100 8.1453600 2.6188300 -2.110041802 11.232452675 3.319232265
117 1 5.3462400 7.1307300 3.6628500 -18.964819237 5.978583197 16.594399902
118 0 12.7546800 3.8689900 9.5453700 -7.774871629 27.117966607 -19.548834079
119 1 11.9902300 3.2470300 9.3757300 -5.804702294 -10.644594716 5.547057791
120 1 13.4863800 3.3769600 10.0170900 8.045557575 -15.763957096 13.087839745
121 0 16.0991800 16.4654600 3.5163300 -15.129073301 -0.014158867 37.144484793
122 1 17.0817000 16.5861000 3.3745600 18.091503009 5.078336878 -9.433215343
123 1 15.6288800 16.4960900 2.6343500 -2.297776697 -2.968407050 -25.130312400
124 0 8.0659300 6.0226800 14.6683700 12.254569812 15.240160490 -0.319966826
125 1 7.8138500 5.7391900 15.5936200 -10.186596891 -5.538437882 16.512193544
126 1 8.0507300 5.2286600 14.0606700 -8.635415534 -16.586627555 -12.782970313
127 0 14.1445000 4.8330800 16.6324500 -14.755424066 18.453875905 -25.432033791
128 1 14.4964400 5.5447500 17.2404400 7.217756595 1.609519981 13.909640772
129 1 14.6217100 3.9733200 16.8143100 8.381971581 -15.745923707 10.216379253
130 0 9.4253100 8.5303600 16.1880400 -4.211034105 10.883076002 41.765067847
131 1 9.9075500 7.9027500 15.5768500 8.978644191 -6.755794574 -22.191866392
132 1 8.8038500 9.1038100 15.6542500 -5.728041467 4.539633436 -19.625756761
133 0 10.1086400 3.9286400 11.9021500 33.849986778 5.042977987 13.188471891
134 1 9.1495600 4.0920600 12.1333700 -22.131499375 0.280375382 2.115255114
135 1 10.1823000 3.6918800 10.9333800 -6.107490797 -4.934985970 -10.908891968
136 0 10.4851400 7.2343200 4.2277500 25.787353509 23.375977601 -26.073390173
137 1 10.6736900 7.1480400 5.2060200 -2.260669646 -4.656039698 23.587836994
138 1 9.6040600 6.8097200 4.0193700 -25.522063572 -17.543350714 2.790084177
139 0 0.7546700 7.8690300 8.3591500 -6.720914530 -18.584504873 -14.356135418
140 1 1.6241100 8.0361000 8.8240800 17.894768209 7.573061734 7.175422943
141 1 0.1560300 8.6613400 8.4769600 -2.516026075 19.159761206 3.902694239
142 0 0.8191700 0.1381200 15.8540500 11.087059463 13.760066704 -29.766326382
143 1 1.1426200 18.5765500 16.7825900 -0.106028537 -9.622543211 27.290530947
144 1 18.6113300 18.2266200 15.6792400 -8.061362690 -3.713537762 4.939912619
145 0 8.6192300 3.4644200 2.3457100 -2.221490416 9.744965104 17.997547679
146 1 9.1094600 4.0294800 1.6821100 5.763262499 1.041360205 -14.998114673
147 1 8.1787200 2.7013200 1.8728200 -0.591700884 -8.435797465 -10.701814434
148 0 16.7452300 5.7401900 18.1348600 -1.902895363 -25.174574542 26.441564599
149 1 16.6550100 6.5787200 17.5975200 0.023114842 20.691877841 -18.586115341
150 1 16.9094900 4.9674500 17.5217700 5.505342638 -2.740528489 -7.936907265
151 0 13.9799600 11.5113100 4.8961500 5.650188097 -33.245172724 18.345399925
152 1 14.8806500 11.5824100 4.4675500 15.152705471 3.305572299 -3.623037547
153 1 13.4107800 12.2803900 4.6053600 -15.652735681 20.214906474 -9.029965367
154 0 5.6386100 1.5671400 9.8061400 0.184206214 -35.587741127 -56.101975158
155 1 5.5280000 1.8399100 10.7618300 2.429265415 13.896193784 31.751920788
156 1 5.4118800 2.3381500 9.2110400 0.341753848 10.799099425 1.047625454
157 0 10.0618800 14.6203300 4.8413200 13.418695791 -24.973855828 -3.308487667
158 1 9.7755200 15.3517800 4.2224700 -10.711969692 16.160565987 -4.425218785
159 1 9.6630900 14.7734600 5.7454900 -8.435353990 10.624416203 8.966862403
160 0 3.5460000 18.0998300 9.3178500 -36.835694162 10.621689745 1.362228131
161 1 3.9719500 17.2204000 9.1053400 15.679635514 -18.840467397 -1.589616802
162 1 4.2568500 0.1583500 9.5008600 20.577619261 8.254472417 0.387027103
163 0 17.8931500 10.4000900 8.9755100 33.839661563 -2.331029302 19.219384270
164 1 17.7243200 10.3837400 7.9900000 -10.902569621 -3.390894622 -18.419654514
165 1 17.0207000 10.3759700 9.4636200 -17.821187593 5.343603489 5.572610778
166 0 12.0654700 15.7538400 14.8536600 19.668630159 27.061360273 -2.711200525
167 1 12.2166500 14.8441500 15.2404500 -9.978048923 -17.725395647 5.840334344
168 1 11.1920300 15.7681700 14.3669400 -11.825173492 -5.454868283 -3.449821104
169 0 2.8943300 9.1819100 2.6917300 -6.713289507 23.886945742 11.751711757
170 1 3.6702100 9.4625400 2.1267100 11.928651719 1.754674498 -9.261627628
171 1 2.6958000 8.2154000 2.5290400 -4.490881166 -25.485497893 -10.103067422
172 0 14.8462000 7.8866900 7.4471700 -17.115627602 20.885894954 -30.194097629
173 1 14.8047500 7.0895100 8.0494900 0.551950215 -14.830612259 21.925324829
174 1 15.7970300 8.1797900 7.3470900 13.512562163 2.720881333 1.878106214
175 0 4.8005500 12.8109200 17.4409100 38.651259578 -0.286061090 16.948968353
176 1 4.2850800 12.6839600 16.5934600 -17.825984032 0.617869622 -19.870139528
177 1 4.2311500 13.2902200 18.1087900 -11.694680208 1.754311066 3.309890272
178 0 11.2787300 17.9424900 1.9682800 -2.380258413 27.296403987 9.792995266
179 1 10.8317100 17.4263800 2.6988900 -4.310805568 -12.513185873 3.811908460
180 1 11.4648300 17.3345400 1.1964200 4.537549928 -20.324517396 -5.989972585
181 0 2.1666000 2.7232200 15.3890000 16.047394214 2.591815105 -25.269753796
182 1 1.7285400 3.4010700 15.9794500 -9.456614100 0.747500143 15.512332956
183 1 1.8160500 1.8129700 15.6093500 -14.645226742 -13.116652006 11.474808507
184 0 16.2818100 13.5242100 1.0357200 36.920883718 -4.232992303 4.983206859
185 1 15.9212400 14.4510800 1.1401800 -16.044641489 11.855569979 0.265575502
186 1 15.5550800 12.9183300 0.7120500 -17.938902005 -2.368499569 -4.582949951
187 0 5.0150400 17.8713000 2.9047400 -33.867357882 2.130820602 -7.798008531
188 1 5.4501500 18.1338300 3.7659900 12.174096485 7.095234081 12.964825595
189 1 5.6824100 17.4078100 2.3218200 15.863696484 -13.725715485 -3.789309106
190 0 14.2211900 0.7572800 4.6153100 -16.099389338 10.542892541 34.060231304
191 1 14.1416700 0.5864500 3.6332300 2.034673637 -2.345983556 -27.669479919
192 1 15.1058400 0.4237400 4.9411300 12.826993210 -3.479688790 0.540086735
193 0 2.6142800 18.0773500 11.9088600 -17.362132908 12.705004611 19.909605231
194 1 2.9839400 17.1845500 12.1662600 7.734672872 -14.609672010 1.057032003
195 1 2.8905100 18.2952200 10.9727900 9.488343928 -6.103697967 -16.851870815
196 0 9.8776800 16.8772500 8.7882100 -24.632438237 31.891671458 6.014156524
197 1 10.8094800 16.6035400 9.0266200 17.881394165 -12.452352030 -0.599641228
198 1 9.4753200 16.1943200 8.1785200 -1.219329780 -11.634113311 -7.492403871
199 0 3.8892300 6.6063600 4.6718100 27.417596124 30.267441941 -7.829377293
200 1 3.8733700 5.6337300 4.9036100 -6.420755472 -27.953900259 7.364272346
201 1 3.0111100 7.0205000 4.9113900 -15.709181546 -3.169435755 4.660034536
202 0 15.1487500 2.4136600 17.4511800 12.790672632 21.662587736 -45.336776929
203 1 14.9569800 2.8358500 18.3371800 -5.351845219 -0.812721606 32.062529058
204 1 14.8818300 1.4502700 17.4762400 -7.390104325 -21.377370910 14.165280925
205 0 6.5297500 1.4466800 0.7813400 -10.708069668 26.878132285 4.153523350
206 1 7.3453400 0.9660600 1.1035500 19.766198874 -13.741759080 4.348443068
207 1 5.9095200 0.7950300 0.3446900 -10.920717517 -16.000357454 -8.428577245
208 0 7.9210800 2.6519600 17.3317800 -7.745084153 24.825664695 -25.140258313
209 1 8.8783900 2.3629000 17.3306700 13.719649878 -12.581967111 3.514037858
210 1 7.4106300 2.1121100 18.0011100 -7.890123613 -6.717094000 16.185263047
211 0 8.6897100 15.2705100 11.7423400 -10.738656523 16.276105375 0.152829995
212 1 8.2838300 14.6566700 11.0652300 1.982386759 -9.512463311 -6.773843283
213 1 9.3577800 14.7672300 12.2904300 7.365186997 -10.403627651 4.831143044
214 0 13.1990800 6.0022200 14.3108500 -22.087294093 -16.293294118 -13.687793162
215 1 13.6426100 5.6742800 15.1449600 11.779669907 -3.833202198 19.749748276
216 1 13.4455900 6.9589500 14.1562900 10.971658674 20.866855016 -3.756218976
217 0 8.0560100 13.3271800 9.1038500 3.877103680 -14.018498970 43.901318755
218 1 8.9594100 13.6404300 8.8110500 19.701087903 2.718488766 -12.956385132
219 1 7.3607100 13.6863900 8.4813300 -13.347491513 10.549896843 -23.577727673
220 0 9.4100300 4.9566300 8.8166200 7.498674401 47.719846766 44.535699252
221 1 9.1979700 4.8919300 7.8415100 -12.294840772 -16.091850380 -31.879645310
222 1 9.5848600 4.0419900 9.1811400 0.424191109 -27.683005684 -5.181401170
223 0 5.8225400 0.8328600 4.9834300 20.154628415 -15.178829204 0.817987237
224 1 5.1224800 0.8653700 5.6967800 -19.337448778 0.189248829 9.817102269
225 1 5.6233500 1.5244500 4.2891400 -8.360385348 15.950694907 -11.991857527
226 0 13.9627100 12.1591700 0.3490600 26.570613715 6.376926576 -37.578266199
227 1 14.3303700 11.5544700 1.0555700 2.347426123 -15.709636685 15.684910442
228 1 13.0718000 12.5082500 0.6396300 -21.098736087 3.015067423 18.705390652
229 0 2.9685700 0.5538300 1.7252700 -38.757522604 -7.558273397 5.074662595
230 1 3.3790700 1.2303300 1.1138500 13.387463430 14.178290294 -12.982282766
231 1 3.6913400 0.0501600 2.1984500 25.420821650 -6.013811161 7.217566968
232 0 9.8073800 2.6541800 4.6088400 -16.836731666 -18.032297153 35.201127767
233 1 9.4825200 2.8987800 3.6952500 -4.817200812 9.860721103 -23.172224638
234 1 10.8071600 2.6699600 4.6224300 19.151826933 6.741601433 -5.908283723
235 0 10.6205000 6.9444400 14.3708000 -3.550745387 23.410334676 -5.559938766
236 1 9.9846700 6.2446400 14.6963500 -9.638537236 -11.029703344 0.276793571
237 1 11.5437300 6.5624800 14.3289600 18.748596651 -12.990215581 -0.024364818
238 0 12.2315900 15.9068100 7.7732300 -20.747546173 -28.404054943 3.184574545
239 1 12.2540100 16.7532800 7.2412600 7.900372250 22.166124853 -11.474726815
240 1 13.1564800 15.6805500 8.0788000 14.347058913 -1.057099665 5.518922752
241 0 5.1043600 11.2253500 6.9642500 34.819197055 17.718946412 -6.665131691
242 1 4.3911600 11.0822600 7.6504500 -22.328250212 -8.461393139 14.665133172
243 1 4.7071600 11.1488900 6.0497100 -16.620204180 -4.391930974 -11.160587570
244 0 12.3651500 18.1519600 6.2843400 3.045892256 -33.612349373 5.562902270
245 1 12.8963400 0.0533300 5.6169700 11.448809463 16.011002149 -9.871041944
246 1 11.6388000 0.1087100 6.6572600 -11.359795744 17.472226670 3.723322490
247 0 10.3567300 5.0872500 0.2954800 -13.001154945 -25.887489671 -24.738969666
248 1 9.8709900 5.9441400 0.1228200 -3.896110062 19.576712736 5.523892064
249 1 10.7806700 5.1209200 1.2005400 10.663948994 8.455055472 21.039683410
250 0 1.0453300 5.9836600 13.6830600 -26.803863117 -16.810962402 -13.047720505
251 1 1.9822100 5.6568400 13.5587300 23.463814839 4.281765367 2.306784632
252 1 1.0126400 6.6152200 14.4577000 5.090181046 12.049177914 14.949407622
253 0 5.4941700 2.1740900 12.2399800 9.670063550 17.279140270 -14.070212546
254 1 5.9495300 1.7546800 13.0253000 2.865801529 -3.450720076 20.469172463
255 1 4.5187400 2.2758100 12.4354200 -19.887764457 -2.584419646 13.395860132
256 0 8.5529400 4.4680500 6.4483500 -0.118692925 2.073999856 12.851366442
257 1 8.0095100 5.1593500 5.9721400 -6.087983316 6.317568283 -10.385596461
258 1 8.9326400 3.8257200 5.7825800 5.393602652 -9.268896700 -16.389975906
259 0 10.1529900 0.7648700 7.4184600 25.751721459 24.254215747 8.359787977
260 1 9.4223000 0.8223100 6.7381700 -15.389642660 -9.145053249 -10.212552890
261 1 10.1194300 18.4934500 7.8691900 -8.508513765 -19.455724830 9.166424305
262 0 14.2624200 11.7496000 8.2354900 9.331308220 14.826057980 20.227713070
263 1 13.3937900 11.2553300 8.2699900 -14.533332837 -9.364922059 -6.686087738
264 1 14.6749300 11.6359800 7.3316500 -1.097210875 -4.697203776 -12.225716705
265 0 14.3011000 6.2427300 9.4621900 -5.937475262 23.137244667 -22.758548060
266 1 13.6247900 5.5062300 9.4755800 -8.379559487 -18.216676144 6.593187810
267 1 14.9997400 6.0663800 10.1556000 11.432396796 -7.780369024 20.153063166
268 0 18.1294400 7.8229300 3.8931200 -16.104258721 32.177538905 1.845836448
269 1 0.2268300 7.3955300 4.4425000 13.384233698 -15.489565844 14.149610753
270 1 17.8350300 7.1890100 3.1779500 -1.390659010 -17.360857932 -10.917774449
271 0 4.9389800 14.0888300 1.6058900 19.361302674 17.971243042 -6.395212332
272 1 4.0081100 14.0197100 1.9646300 -18.277711302 -12.741013000 8.935695673
273 1 5.4161800 13.2215800 1.7478500 -6.607908316 -12.096569142 2.131911591
274 0 17.4215900 12.6469100 6.5106900 -31.400557261 -10.729398421 -3.724998637
275 1 18.4153900 12.6094200 6.4059700 27.984371148 -2.748497394 4.296459249
276 1 17.1361700 13.5957800 6.6455300 -1.117777055 14.836006809 0.875139508
277 0 13.3928500 5.5056800 0.8891800 9.483022298 29.667164670 -34.337071840
278 1 12.6745300 5.4631500 1.5835800 -10.028077627 -9.873956571 19.669575451
279 1 13.9225200 4.6576200 0.9051200 7.244409153 -17.918308458 11.901849640
280 0 5.3022600 2.8488700 2.8882000 1.744939722 -14.071401456 36.918707236
281 1 5.7125700 2.3465000 2.1271000 5.272944430 -2.836454254 -21.044185178
282 1 5.0210400 3.7562000 2.5756900 -8.041079874 13.869086829 -13.430465199
283 0 17.2104700 12.6635000 15.2826600 -27.830050235 -16.493289290 -6.846704707
284 1 18.0349400 12.1263500 15.4607600 18.782664887 3.086713718 0.864759871
285 1 17.4068900 13.6333600 15.4268500 8.816143211 14.214549591 7.601352484
286 0 10.1203800 13.3656700 13.5249500 4.785992136 9.334755304 -24.204408768
287 1 9.2217200 13.3083700 13.9598300 -14.687881331 -7.101859105 12.633536279
288 1 10.8320100 13.1952000 14.2065000 7.012231954 -5.002793116 12.580810323
289 0 16.0176400 16.4465700 16.9878900 -28.375970598 22.709543424 32.152730970
290 1 15.4365200 15.9907500 16.3137100 2.347073829 -10.145602388 -12.884824902
291 1 16.9700400 16.1785200 16.8426500 17.466750427 -14.822050715 -16.617388740
292 0 11.5666000 12.8808100 11.2674700 29.613823083 -8.974241609 -19.549120002
293 1 11.0693100 12.7988000 12.1311600 -18.245917301 8.564766323 19.052885489
294 1 10.9324700 13.1476100 10.5417300 -10.155563646 4.080595148 -7.741817972
295 0 15.6958900 10.9347100 10.6255600 17.010716871 -28.076440292 4.876659392
296 1 15.6618100 11.6159400 11.3568400 -6.529879899 16.714527125 7.139448087
297 1 15.0496500 11.1864100 9.9051300 -12.443513311 10.157716801 -13.080844907
298 0 9.1103500 1.0314300 13.5187200 -31.738403771 -9.353628201 11.854136733
299 1 9.3634700 0.7384500 12.5967200 13.253676217 -6.433910706 -17.890654467
300 1 9.9262200 1.3448200 14.0046700 25.159134867 9.347769047 2.889438623
301 0 9.8369400 11.4865000 16.8257000 17.230557215 13.458145457 3.588394550
302 1 8.9439400 11.6840600 17.2300900 -15.207469357 -6.369344597 4.355110038
303 1 9.8344800 10.5604400 16.4483600 -6.504530018 -14.027359558 -2.274412595
304 0 7.1133200 10.0052200 4.0615800 -28.485495454 25.958091487 -32.458321027
305 1 7.1208800 9.8081800 5.0419400 6.359415439 -11.407900309 26.736038810
306 1 7.9179400 9.5944500 3.6327900 23.920767444 -6.911774856 -5.740954899
307 0 4.3610600 8.3332900 12.5847400 -18.613143544 29.564227648 -26.055018352
308 1 5.1013500 8.5657500 13.2155600 13.539316083 -8.714125955 18.295270576
309 1 4.1655500 7.3545300 12.6464200 -0.801603752 -24.341577410 11.958507001
310 0 12.5435500 3.6859300 13.0858900 26.508962950 -36.515385056 -4.953834440
311 1 12.8409000 4.4414100 13.6697000 0.817775000 26.575815698 5.450304158
312 1 11.6960000 3.9388400 12.6193000 -24.346073347 10.761252962 -10.310575285
313 0 0.7408300 15.7282000 13.5080000 -7.894772011 -27.627983600 33.275719498
314 1 0.2565300 16.4443000 13.0053600 -7.309663813 14.180643282 -18.769789744
315 1 1.7151900 15.7659500 13.2861700 20.367781737 3.685624091 -6.534704779
316 0 3.2154500 10.9585500 4.5416700 11.478467111 23.154144571 53.825538878
317 1 2.9816000 11.7370100 3.9591700 -2.644097610 7.722750309 -19.304888931
318 1 3.0772400 10.1085100 4.0334100 -3.378421725 -14.678852961 -23.679532692
319 0 5.3352500 5.0501200 8.6351800 -17.852306187 -18.864734127 5.978016467
320 1 5.5531200 5.4832000 7.7605500 11.462907073 10.892325381 -13.779809773
321 1 6.0845900 5.2041100 9.2792200 16.966364266 8.904243020 4.787822155
322 0 12.4336900 13.4909800 4.2657700 4.860373613 -32.665554655 -25.313578318
323 1 13.2153200 14.0718900 4.4929300 10.052690821 25.113659007 10.440330424
324 1 11.6063000 13.8674400 4.6825700 -19.224061111 15.675288358 7.687013957
325 0 13.5571700 14.7680600 11.6364700 10.638036781 23.214691034 -16.503601360
326 1 14.0648200 14.6627200 12.4915700 0.136290464 -7.423875716 11.192979683
327 1 13.0141600 13.9454800 11.4676700 -16.232431092 -19.614993902 8.456047441
328 0 15.0650900 6.3921800 4.7563100 9.954384678 -8.639003393 19.206125475
329 1 14.6864200 6.7650000 5.6034300 -4.458989411 9.261354109 4.826144191
330 1 14.7640700 6.9499100 3.9827900 -11.888920505 15.070863788 -10.656685754
331 0 3.4547500 15.4267200 12.7922500 -34.585463331 18.723126431 15.970127268
332 1 3.2934600 14.7118700 12.1118200 7.784367518 -15.658227985 -16.441011159
333 1 4.4372700 15.5943900 12.8730900 24.474782549 -3.037916395 -3.249019239
334 0 4.5691500 6.6953500 16.0641400 -22.266488596 20.014304466 13.239501312
335 1 5.2971700 7.0437400 15.4737000 10.561503607 2.083248852 -9.881186997
336 1 4.6194400 5.6973300 16.1018400 5.526381094 -15.285933960 -4.969788336
337 0 16.4551600 7.9125200 16.6810100 6.713267638 -17.854990317 28.995074828
338 1 15.5615100 8.3478500 16.5720400 -18.182453272 10.825203488 -9.175648158
339 1 17.0632200 8.2108500 15.9453000 -1.162160277 10.729531165 -17.589608482
340 0 10.3814600 1.2659400 17.4951600 -35.904047365 3.840666013 15.212041154
341 1 10.9967700 2.0525800 17.4442700 17.437901694 11.197096341 -3.981361974
342 1 10.8358300 0.4619600 17.1115300 18.470093114 -11.904305471 -9.993757742
343 0 4.8076500 18.4139500 17.7642400 35.721391199 -13.403286757 10.081691992
344 1 4.3033900 17.7273900 17.2404500 -13.352642469 -3.288018499 -8.226584296
345 1 4.2571200 0.6246200 17.8410700 -17.343800475 18.230145026 -1.061602079
346 0 5.8900900 8.6177800 10.3631200 16.077593759 -26.277598275 -25.526098538
347 1 6.4179100 9.4615500 10.4602900 2.863697801 20.601172654 1.696072562
348 1 5.1311300 8.6225000 11.0142400 -10.571790151 5.125673422 22.301507955
349 0 12.5966800 8.8118300 9.6568700 9.802045505 25.722047056 6.634624330
350 1 11.7238500 8.3250100 9.6911600 -10.571642804 -18.138739624 -4.974249617
351 1 13.2991900 8.2102500 9.2766300 5.646410946 -13.320407909 -4.450395052
352 0 11.5269400 5.1915000 2.7769500 -2.970980688 -7.661553225 -37.884089669
353 1 11.8546800 4.4473600 3.3590500 8.814497704 -11.571325452 19.863888692
354 1 11.3224600 5.9911000 3.3416100 -6.632831500 14.104999950 18.541987401
355 0 2.7092300 1.9494500 12.8280100 13.936135060 25.723482501 -26.447837352
356 1 2.4015500 2.2747300 13.7221700 -5.475230616 4.313255592 21.648158983
357 1 2.5637300 0.9621400 12.7643100 -1.423468499 -25.290366296 -1.411003179
358 0 0.2734800 13.1629000 12.4002500 -9.174725477 -14.266775213 -22.510645264
359 1 0.5554700 12.5982000 13.1758800 7.002374999 -3.898571725 13.888333913
360 1 0.1817800 14.1137300 12.6960800 5.960158125 14.433819572 11.238498588
361 0 7.2592500 6.0239100 10.3944000 -9.407447537 -19.638214696 18.144937951
362 1 7.9785300 5.9111800 9.7088800 15.139636303 0.702130354 -14.214492708
363 1 6.8998900 6.9560700 10.3503200 -6.344950214 21.340481402 -5.727591801
364 0 17.6153900 9.4866700 0.0910800 24.011714767 11.948111040 -5.783368809
365 1 17.2279900 8.8224000 18.0724100 -11.503727986 -11.511016752 -5.492069239
366 1 16.8975300 9.8178200 0.7034700 -11.422093473 1.407205712 8.594208053
367 0 3.5181600 0.3539600 6.5929100 17.774302555 -14.233824400 -26.627928987
368 1 2.8991300 1.1389700 6.6167500 -14.944460920 19.711366440 7.813472991
369 1 3.5047400 18.5124100 7.4796100 -4.203531261 -0.780751745 16.861113621
370 0 16.1299700 4.3960700 3.6051600 17.538437569 -35.657032953 -45.877819161
371 1 16.7130200 3.7557700 4.1052300 5.770050190 -7.824251887 13.810853965
372 1 15.8242400 5.1206600 4.2228100 -15.711578320 24.795987353 19.532187999
373 0 10.3110800 7.3095500 9.5672100 28.279320909 36.577514287 -22.931147439
374 1 10.0905400 7.4598800 10.5309300 -11.919300954 -6.387444335 31.021748346
375 1 10.1117100 6.3603500 9.3237600 -11.397095887 -30.658513308 -1.066355593
376 0 9.9438200 15.8407700 17.4057400 6.635266921 10.157860491 30.412388762
377 1 9.7679100 16.2536800 16.5121200 1.173309345 1.913471104 -28.342917682
378 1 10.3368700 14.9298300 17.2804900 4.724938001 -16.083474089 -17.581593974
379 0 18.2115900 15.3584100 15.9973500 -21.151764026 -5.628682098 14.106781116
380 1 18.6001100 15.4747100 15.0832700 16.651678726 4.060324378 -19.778311087
381 1 0.3298300 15.2451200 16.6616400 16.733680853 -2.855830066 0.819360492
382 0 3.4867600 8.6693600 17.6372500 -24.673132238 23.589125092 12.853402890
383 1 4.2615000 9.1776200 18.0133200 9.263625429 -0.893648351 -0.806763336
384 1 3.8244600 7.9004300 17.0943800 17.741802507 -14.157922871 -14.048034773
385 0 14.8108800 3.2059600 1.3870300 -6.833384631 8.451058436 -33.461447844
386 1 14.4763900 2.3034900 1.6584500 -5.585347346 -15.235244429 14.435152890
387 1 15.3770200 3.5855600 2.1187200 8.488509583 7.257963359 22.578465173
388 0 12.9250300 8.0457300 18.5978200 -13.341672464 13.729458698 22.845644236
389 1 13.1783000 7.0797600 0.0297300 5.727206691 -21.695443735 3.685041324
390 1 13.3542100 8.4597100 17.7950600 10.739842517 2.304030282 -22.423318591
391 0 10.6637200 13.6026500 8.3728300 -24.322196124 12.950795098 17.786114266