
                                 *****************
                                 * O   R   C   A *
                                 *****************

           --- An Ab Initio, DFT and Semiempirical electronic structure package ---

                  #######################################################
                  #                        -***-                        #
                  #  Department of molecular theory and spectroscopy    #
                  #              Directorship: Frank Neese              #
                  # Max Planck Institute for Chemical Energy Conversion #
                  #                  D-45470 Muelheim/Ruhr              #
                  #                       Germany                       #
                  #                                                     #
                  #                  All rights reserved                #
                  #                        -***-                        #
                  #######################################################


                         Program Version 4.0.1 -  RELEASE  -


 With contributions from (in alphabetic order):
   Daniel Aravena         : Magnetic Properties
   Michael Atanasov       : Ab Initio Ligand Field Theory
   Ute Becker             : Parallelization
   Martin Brehm           : Molecular dynamics
   Dmytro Bykov           : SCF Hessian
   Vijay G. Chilkuri      : MRCI spin determinant printing
   Dipayan Datta          : RHF DLPNO-CCSD density
   Achintya Kumar Dutta   : EOM-CC, STEOM-CC
   Dmitry Ganyushin       : Spin-Orbit,Spin-Spin,Magnetic field MRCI
   Yang Guo               : DLPNO-NEVPT2, CIM, IAO-localization
   Andreas Hansen         : Spin unrestricted coupled pair/coupled cluster methods
   Lee Huntington         : MR-EOM, pCC
   Robert Izsak           : Overlap fitted RIJCOSX, COSX-SCS-MP3, EOM
   Christian Kollmar      : KDIIS, OOCD, Brueckner-CCSD(T), CCSD density
   Simone Kossmann        : Meta GGA functionals, TD-DFT gradient, OOMP2, MP2 Hessian
   Martin Krupicka        : AUTO-CI
   Dagmar Lenk            : GEPOL surface
   Dimitrios Liakos       : Extrapolation schemes; parallel MDCI
   Dimitrios Manganas     : ROCIS; embedding schemes
   Dimitrios Pantazis     : SARC Basis sets
   Taras Petrenko         : DFT Hessian,TD-DFT gradient, ASA, ECA, R-Raman, ABS, FL, XAS/XES, NRVS
   Peter Pinski           : DLPNO-MP2
   Christoph Reimann      : Effective Core Potentials
   Marius Retegan         : Local ZFS, SOC
   Christoph Riplinger    : Optimizer, TS searches, QM/MM, DLPNO-CCSD(T), (RO)-DLPNO pert. Triples
   Tobias Risthaus        : Range-separated hybrids, TD-DFT gradient, RPA, STAB
   Michael Roemelt        : Restricted open shell CIS
   Masaaki Saitow         : Open-shell DLPNO
   Barbara Sandhoefer     : DKH picture change effects
   Kantharuban Sivalingam : CASSCF convergence, NEVPT2, FIC-MRCI
   Georgi Stoychev        : AutoAux
   Boris Wezisla          : Elementary symmetry handling
   Frank Wennmohs         : Technical directorship


 We gratefully acknowledge several colleagues who have allowed us to
 interface, adapt or use parts of their codes:
   Stefan Grimme, W. Hujo, H. Kruse,             : VdW corrections, initial TS optimization,
                  C. Bannwarth                     DFT functionals, gCP, sTDA/sTD-DF
   Ed Valeev                                     : LibInt (2-el integral package), F12 methods
   Garnet Chan, S. Sharma, J. Yang, R. Olivares  : DMRG
   Ulf Ekstrom                                   : XCFun DFT Library
   Mihaly Kallay                                 : mrcc  (arbitrary order and MRCC methods)
   Andreas Klamt, Michael Diedenhofen            : otool_cosmo (COSMO solvation model)
   Jiri Pittner, Ondrej Demel                    : Mk-CCSD
   Frank Weinhold                                : gennbo (NPA and NBO analysis)
   Christopher J. Cramer and Donald G. Truhlar   : smd solvation model


 Your calculation uses the libint2 library for the computation of 2-el integrals
 For citations please refer to: http://libint.valeyev.net

 This ORCA versions uses:
   CBLAS   interface :  Fast vector & matrix operations
   LAPACKE interface :  Fast linear algebra routines
   SCALAPACK package :  Parallel linear algebra routines


Your calculation utilizes the basis: cc-pVTZ 
       H, B-Ne : Obtained from the ccRepo (grant-hill.group.shef.ac.uk/ccrepo) Feb. 2017
                 T. H. Dunning, Jr., J. Chem. Phys. 90, 1007 (1989)
            He : Obtained from the ccRepo (grant-hill.group.shef.ac.uk/ccrepo) Feb. 2017
                 D. E. Woon, T. H. Dunning, Jr., J. Chem. Phys. 100, 2975 (1994)
  Li-Be, Na-Mg : Obtained from the ccRepo (grant-hill.group.shef.ac.uk/ccrepo) Feb. 2017
                 B. P. Prascher, D. E. Woon, K. A. Peterson, T. H. Dunning, Jr., A. K. Wilson, Theor. Chem. Acc. 128, 69 (2011)
         Al-Ar : Obtained from the ccRepo (grant-hill.group.shef.ac.uk/ccrepo) Feb. 2017
                 D. E. Woon, T. H. Dunning, Jr., J. Chem. Phys. 98, 1358 (1993)
            Ca : Obtained from the Peterson Research Group Website (tyr0.chem.wsu.edu/~kipeters) Feb. 2017
                 J. Koput, K. A. Peterson, J. Phys. Chem. 106, 9595 (2002)
         Sc-Zn : Obtained from the ccRepo (grant-hill.group.shef.ac.uk/ccrepo) Feb. 2017
                 N. B. Balabanov, K. A. Peterson, J. Chem. Phys. 123, 064107 (2005)
                 N. B. Balabanov, K. A. Peterson, J. Chem. Phys. 125, 074110 (2006)
         Ga-Kr : Obtained from the ccRepo (grant-hill.group.shef.ac.uk/ccrepo) Feb. 2017
                 A. K. Wilson, D. E. Woon, K. A. Peterson, T. H. Dunning, Jr., J. Chem. Phys. 110, 7667 (1999)
             Y : Obtained from the ccRepo (grant-hill.group.shef.ac.uk/ccrepo) Feb. 2017
                 K. A. Peterson, D. Figgen, M. Dolg, H. Stoll, J. Chem. Phys. 126, 124101 (2007)
        Ag, Au : Obtained from the Peterson Research Group Website (tyr0.chem.wsu.edu/~kipeters) Feb. 2017
                 K. A. Peterson, C. Puzzarini, Theor. Chem. Acc. 114, 283 (2005)

Your calculation utilizes the auxiliary basis: def2/J
   F. Weigend, Phys. Chem. Chem. Phys. 8, 1057 (2006).

================================================================================
                                        WARNINGS
                       Please study these warnings very carefully!
================================================================================

Warning: TCutStore was < 0. Adjusted to Thresh (uncritical)

WARNING: your system is open-shell and RHF/RKS was chosen
  ===> : WILL SWITCH to UHF/UKS


INFO   : the flag for use of LIBINT has been found!

================================================================================
                                       INPUT FILE
================================================================================
NAME = system.inp
|  1> * xyz  -1 2
|  2>   C   11.74900087301513     10.83466152787343      9.85570686810262
|  3>   C   10.48047716613088     11.21369140365122      9.51438834881580
|  4>   S   9.34064724310574     10.30916949725020     10.31790763388404
|  5>   C   10.47398596248998      9.40336030726578     11.12907407004676
|  6>   C   11.74529900769204      9.78042365234236     10.79607732244523
|  7>   H   12.64106060068348     11.29083790819463      9.45090881733661
|  8>   H   10.19420913092537     11.98899877875689      8.82181671349346
|  9>   H   10.18150178674088      8.62858482789267     11.81967233638997
| 10>   H   12.63411822921651      9.32267209677281     11.20614788948551
| 11> * 
| 12> 
| 13> %pal
| 14>  nprocs 4
| 15> end
| 16> 
| 17>  
| 18> 
| 19> ! DFT  PBE0 RIJK cc-pVTZ
| 20> 
| 21> 
| 22>                          ****END OF INPUT****
================================================================================

                       ****************************
                       * Single Point Calculation *
                       ****************************

---------------------------------
CARTESIAN COORDINATES (ANGSTROEM)
---------------------------------
  C     11.749001   10.834662    9.855707
  C     10.480477   11.213691    9.514388
  S      9.340647   10.309169   10.317908
  C     10.473986    9.403360   11.129074
  C     11.745299    9.780424   10.796077
  H     12.641061   11.290838    9.450909
  H     10.194209   11.988999    8.821817
  H     10.181502    8.628585   11.819672
  H     12.634118    9.322672   11.206148

----------------------------
CARTESIAN COORDINATES (A.U.)
----------------------------
  NO LB      ZA    FRAG     MASS         X           Y           Z
   0 C     6.0000    0    12.011   22.202394   20.474543   18.624587
   1 C     6.0000    0    12.011   19.805232   21.190806   17.979588
   2 S    16.0000    0    32.060   17.651265   19.481507   19.498020
   3 C     6.0000    0    12.011   19.792965   17.769776   21.030902
   4 C     6.0000    0    12.011   22.195398   18.482322   20.401629
   5 H     1.0000    0     1.008   23.888143   21.336591   17.859629
   6 H     1.0000    0     1.008   19.264263   22.655924   16.670818
   7 H     1.0000    0     1.008   19.240250   16.305662   22.335944
   8 H     1.0000    0     1.008   23.875023   17.617297   21.176551

--------------------------------
INTERNAL COORDINATES (ANGSTROEM)
--------------------------------
 C      0   0   0     0.000000000000     0.00000000     0.00000000
 C      1   0   0     1.367228720174     0.00000000     0.00000000
 S      2   1   0     1.662232045792   111.38826788     0.00000000
 C      3   2   1     1.662208750029    93.72072825     0.00000000
 C      4   3   2     1.367223631676   111.39843071     0.00000000
 H      1   2   3     1.080615060785   123.73616120   179.98105336
 H      2   1   3     1.078288636649   127.30005641   180.02498751
 H      4   3   2     1.078308862051   121.27503025   179.98226409
 H      5   4   3     1.080598891879   123.75014972   180.03330511

---------------------------
INTERNAL COORDINATES (A.U.)
---------------------------
 C      0   0   0     0.000000000000     0.00000000     0.00000000
 C      1   0   0     2.583687843560     0.00000000     0.00000000
 S      2   1   0     3.141163337575   111.38826788     0.00000000
 C      3   2   1     3.141119314962    93.72072825     0.00000000
 C      4   3   2     2.583678227694   111.39843071     0.00000000
 H      1   2   3     2.042066521074   123.73616120   179.98105336
 H      2   1   3     2.037670216586   127.30005641   180.02498751
 H      4   3   2     2.037708437057   121.27503025   179.98226409
 H      5   4   3     2.042035966270   123.75014972   180.03330511

---------------------
BASIS SET INFORMATION
---------------------
There are 3 groups of distinct atoms

 Group   1 Type C   : 18s5p2d1f contracted to 4s3p2d1f pattern {8811/311/11/1}
 Group   2 Type S   : 41s16p2d1f contracted to 5s4p2d1f pattern {13131311/7711/11/1}
 Group   3 Type H   : 5s2p1d contracted to 3s2p1d pattern {311/11/1}

Atom   0C    basis set group =>   1
Atom   1C    basis set group =>   1
Atom   2S    basis set group =>   2
Atom   3C    basis set group =>   1
Atom   4C    basis set group =>   1
Atom   5H    basis set group =>   3
Atom   6H    basis set group =>   3
Atom   7H    basis set group =>   3
Atom   8H    basis set group =>   3
-------------------------------
AUXILIARY BASIS SET INFORMATION
-------------------------------
There are 3 groups of distinct atoms

 Group   1 Type C   : 12s5p4d2f1g contracted to 6s4p3d1f1g pattern {711111/2111/211/2/1}
 Group   2 Type S   : 14s5p5d2f1g contracted to 8s4p3d1f1g pattern {71111111/2111/311/2/1}
 Group   3 Type H   : 5s2p1d contracted to 3s1p1d pattern {311/2/1}

Atom   0C    basis set group =>   1
Atom   1C    basis set group =>   1
Atom   2S    basis set group =>   2
Atom   3C    basis set group =>   1
Atom   4C    basis set group =>   1
Atom   5H    basis set group =>   3
Atom   6H    basis set group =>   3
Atom   7H    basis set group =>   3
Atom   8H    basis set group =>   3


           ************************************************************
           *        Program running with 4 parallel MPI-processes     *
           *              working on a common directory               *
           ************************************************************
------------------------------------------------------------------------------
                           ORCA GTO INTEGRAL CALCULATION
                           -- RI-GTO INTEGRALS CHOSEN --
------------------------------------------------------------------------------

                         BASIS SET STATISTICS AND STARTUP INFO

Gaussian basis set:
 # of primitive gaussian shells          ...  196
 # of primitive gaussian functions       ...  370
 # of contracted shells                  ...   76
 # of contracted basis functions         ...  210
 Highest angular momentum                ...    3
 Maximum contraction depth               ...   13
Auxiliary gaussian basis set:
 # of primitive gaussian shells          ...  155
 # of primitive gaussian functions       ...  421
 # of contracted shells                  ...   97
 # of contracted aux-basis functions     ...  291
 Highest angular momentum                ...    4
 Maximum contraction depth               ...    7
Ratio of auxiliary to basis functions    ...  1.39
Integral package used                  ... LIBINT
 One Electron integrals                  ... done
 Ordering auxiliary basis shells         ... done
 Integral threshhold             Thresh  ...  1.000e-10
 Primitive cut-off               TCut    ...  1.000e-11
 Pre-screening matrix                    ... done
 Shell pair data                         ... 
 Ordering of the shell pairs             ... done (   0.000 sec) 2899 of 2926 pairs
 Determination of significant pairs      ... done (   0.000 sec)
 Creation of shell pair data             ... done (   0.001 sec)
 Storage of shell pair data              ... done (   0.001 sec)
 Shell pair data done in (   0.002 sec)
 Computing two index integrals           ... done
 Cholesky decomposition of the V-matrix  ... done


Timings:
 Total evaluation time                   ...   0.270 sec (  0.005 min)
 One electron matrix time                ...   0.032 sec (  0.001 min) = 11.7%
 Schwartz matrix evaluation time         ...   0.216 sec (  0.004 min) = 80.1%
 Two index repulsion integral time       ...   0.001 sec (  0.000 min) =  0.5%
 Cholesky decomposition of V             ...   0.001 sec (  0.000 min) =  0.4%
 Three index repulsion integral time     ...   0.000 sec (  0.000 min) =  0.0%



           ************************************************************
           *        Program running with 4 parallel MPI-processes     *
           *              working on a common directory               *
           ************************************************************
-------------------------------------------------------------------------------
                                 ORCA SCF
-------------------------------------------------------------------------------

------------
SCF SETTINGS
------------
Hamiltonian:
 Density Functional     Method          .... DFT(GTOs)
 Exchange Functional    Exchange        .... PBE
   PBE kappa parameter   XKappa         ....  0.804000
   PBE mue parameter    XMuePBE         ....  0.219520
 Correlation Functional Correlation     .... PBE
   PBE beta parameter  CBetaPBE         ....  0.066725
 LDA part of GGA corr.  LDAOpt          .... PW91-LDA
 Gradients option       PostSCFGGA      .... off
 Hybrid DFT is turned on
   Fraction HF Exchange ScalHFX         ....  0.250000
   Scaling of DF-GGA-X  ScalDFX         ....  0.750000
   Scaling of DF-GGA-C  ScalDFC         ....  1.000000
   Scaling of DF-LDA-C  ScalLDAC        ....  1.000000
   Perturbative correction              ....  0.000000
   NL short-range parameter             ....  6.900000
 RI-approximation to the Coulomb term is turned on
   Number of auxiliary basis functions  .... 291
   RI-JK (J+K treated both via RI)      .... on


General Settings:
 Integral files         IntName         .... system
 Hartree-Fock type      HFTyp           .... UHF
 Total Charge           Charge          ....   -1
 Multiplicity           Mult            ....    2
 Number of Electrons    NEL             ....   45
 Basis Dimension        Dim             ....  210
 Nuclear Repulsion      ENuc            ....    206.2683705738 Eh

Convergence Acceleration:
 DIIS                   CNVDIIS         .... on
   Start iteration      DIISMaxIt       ....    12
   Startup error        DIISStart       ....  0.200000
   # of expansion vecs  DIISMaxEq       ....     5
   Bias factor          DIISBfac        ....   1.050
   Max. coefficient     DIISMaxC        ....  10.000
 Newton-Raphson         CNVNR           .... off
 SOSCF                  CNVSOSCF        .... off
 Level Shifting         CNVShift        .... on
   Level shift para.    LevelShift      ....    0.2500
   Turn off err/grad.   ShiftErr        ....    0.0010
 Zerner damping         CNVZerner       .... off
 Static damping         CNVDamp         .... on
   Fraction old density DampFac         ....    0.7000
   Max. Damping (<1)    DampMax         ....    0.9800
   Min. Damping (>=0)   DampMin         ....    0.0000
   Turn off err/grad.   DampErr         ....    0.1000
 Fernandez-Rico         CNVRico         .... off

SCF Procedure:
 Maximum # iterations   MaxIter         ....   125
 SCF integral mode      SCFMode         .... Direct
   Integral package                     .... LIBINT
 Reset frequeny         DirectResetFreq ....    20
 Integral Threshold     Thresh          ....  1.000e-10 Eh
 Primitive CutOff       TCut            ....  1.000e-11 Eh

Convergence Tolerance:
 Convergence Check Mode ConvCheckMode   .... Total+1el-Energy
 Convergence forced     ConvForced      .... 0
 Energy Change          TolE            ....  1.000e-06 Eh
 1-El. energy change                    ....  1.000e-03 Eh
 DIIS Error             TolErr          ....  1.000e-06


Diagonalization of the overlap matrix:
Smallest eigenvalue                        ... 1.612e-04
Time for diagonalization                   ...    0.007 sec
Threshold for overlap eigenvalues          ... 1.000e-08
Number of eigenvalues below threshold      ... 0
Time for construction of square roots      ...    0.002 sec
Total time needed                          ...    0.009 sec

-------------------
DFT GRID GENERATION
-------------------

General Integration Accuracy     IntAcc      ...  4.340
Radial Grid Type                 RadialGrid  ... Gauss-Chebyshev
Angular Grid (max. acc.)         AngularGrid ... Lebedev-110
Angular grid pruning method      GridPruning ... 3 (G Style)
Weight generation scheme         WeightScheme... Becke
Basis function cutoff            BFCut       ...    1.0000e-10
Integration weight cutoff        WCut        ...    1.0000e-14
Grids for H and He will be reduced by one unit

# of grid points (after initial pruning)     ...  11606 (   0.0 sec)
# of grid points (after weights+screening)   ...  11089 (   0.0 sec)
nearest neighbour list constructed           ...    0.0 sec
Grid point re-assignment to atoms done       ...    0.0 sec
Grid point division into batches done        ...    0.0 sec
Reduced shell lists constructed in    0.0 sec

Total number of grid points                  ...    11089
Total number of batches                      ...      177
Average number of points per batch           ...       62
Average number of grid points per atom       ...     1232
Average number of shells per batch           ...    66.11 (86.99%)
Average number of basis functions per batch  ...   181.37 (86.37%)
Average number of large shells per batch     ...    57.96 (87.67%)
Average number of large basis fcns per batch ...   160.52 (88.51%)
Average number of aux-shells per batch       ...    66.11 (68.15%)
Average number of aux functions per batch    ...   181.37 (62.33%)
Maximum spatial batch extension              ...  17.90, 15.68, 15.07 au
Average spatial batch extension              ...   0.79,  1.01,  1.02 au

Time for grid setup =    0.055 sec

------------------------------
INITIAL GUESS: MODEL POTENTIAL
------------------------------
Loading Hartree-Fock densities                     ... done
Calculating cut-offs                               ... done
Setting up the integral package                    ... done
Initializing the effective Hamiltonian             ... done
Starting the Coulomb interaction                   ... done (   0.0 sec)
Reading the grid                                   ... done
Mapping shells                                     ... done
Starting the XC term evaluation                    ... done (   0.1 sec)
  promolecular density results
     # of electrons  =     43.994876186
     EX              =    -46.568433618
     EC              =     -1.545993263
     EX+EC           =    -48.114426882
Transforming the Hamiltonian                       ... done (   0.0 sec)
Diagonalizing the Hamiltonian                      ... done (   0.0 sec)
Back transforming the eigenvectors                 ... done (   0.0 sec)
Now organizing SCF variables                       ... done
                      ------------------
                      INITIAL GUESS DONE (   0.2 sec)
                      ------------------
--------------
SCF ITERATIONS
--------------
ITER       Energy         Delta-E        Max-DP      RMS-DP      [F,P]     Damp
  0   -551.8400413365   0.000000000000 0.04565217  0.00090657  0.1946386 0.7000
  1   -551.8905307413  -0.050489404785 0.04531287  0.00089565  0.1209921 0.7000
                               ***Turning on DIIS***
  2   -551.9599191321  -0.069388390832 0.08312691  0.00167514  0.0414771 0.0000
  3   -552.0805492013  -0.120630069222 0.02963812  0.00059379  0.0821930 0.0000
  4   -552.1293584846  -0.048809283318 0.01568477  0.00031535  0.0312830 0.0000
  5   -552.1358299671  -0.006471482514 0.00734403  0.00015297  0.0113278 0.0000
  6   -552.1368918659  -0.001061898723 0.00337407  0.00007259  0.0040016 0.0000
  7   -552.1370423018  -0.000150435904 0.00130257  0.00003105  0.0011210 0.0000
  8   -552.1370663557  -0.000024053891 0.00094127  0.00002227  0.0003590 0.0000
  9   -552.1370746468  -0.000008291130 0.00021680  0.00000506  0.0001265 0.0000
 10   -552.1370763719  -0.000001725153 0.00011179  0.00000260  0.0000358 0.0000
 11   -552.1370768010  -0.000000429033 0.00006443  0.00000141  0.0000301 0.0000
                 **** Energy Check signals convergence ****

               *****************************************************
               *                     SUCCESS                       *
               *           SCF CONVERGED AFTER  12 CYCLES          *
               *****************************************************

Setting up the final grid:

General Integration Accuracy     IntAcc      ...  4.670
Radial Grid Type                 RadialGrid  ... Gauss-Chebyshev
Angular Grid (max. acc.)         AngularGrid ... Lebedev-302
Angular grid pruning method      GridPruning ... 3 (G Style)
Weight generation scheme         WeightScheme... Becke
Basis function cutoff            BFCut       ...    1.0000e-10
Integration weight cutoff        WCut        ...    1.0000e-14
Grids for H and He will be reduced by one unit

# of grid points (after initial pruning)     ...  45270 (   0.0 sec)
# of grid points (after weights+screening)   ...  42839 (   0.0 sec)
nearest neighbour list constructed           ...    0.0 sec
Grid point re-assignment to atoms done       ...    0.0 sec
Grid point division into batches done        ...    0.1 sec
Reduced shell lists constructed in    0.2 sec

Total number of grid points                  ...    42839
Total number of batches                      ...      676
Average number of points per batch           ...       63
Average number of grid points per atom       ...     4760
Average number of shells per batch           ...    64.00 (84.21%)
Average number of basis functions per batch  ...   175.01 (83.34%)
Average number of large shells per batch     ...    53.01 (82.82%)
Average number of large basis fcns per batch ...   146.51 (83.72%)
Maximum spatial batch extension              ...  15.37, 16.94, 17.06 au
Average spatial batch extension              ...   0.51,  0.57,  0.56 au

Final grid set up in    0.2 sec
Final integration                            ... done (   0.4 sec)
Change in XC energy                          ...    -0.000018988
Integrated number of electrons               ...    44.999994363
Previous integrated no of electrons          ...    45.001170591

----------------
TOTAL SCF ENERGY
----------------

Total Energy       :         -552.13709590 Eh          -15024.41421 eV

Components:
Nuclear Repulsion  :          206.26837057 Eh            5612.84771 eV
Electronic Energy  :         -758.40546647 Eh          -20637.26192 eV
One Electron Energy:        -1176.23037840 Eh          -32006.85579 eV
Two Electron Energy:          417.82491193 Eh           11369.59387 eV

Virial components:
Potential Energy   :        -1102.70809078 Eh          -30006.21264 eV
Kinetic Energy     :          550.57099489 Eh           14981.79843 eV
Virial Ratio       :            2.00284450


DFT components:
N(Alpha)           :       22.999998035769 electrons
N(Beta)            :       21.999996327403 electrons
N(Total)           :       44.999994363173 electrons
E(X)               :      -35.418615222716 Eh       
E(C)               :       -1.585386956757 Eh       
E(XC)              :      -37.004002179473 Eh       

---------------
SCF CONVERGENCE
---------------

  Last Energy change         ...   -1.0601e-07  Tolerance :   1.0000e-06
  Last MAX-Density change    ...    2.2219e-05  Tolerance :   1.0000e-05
  Last RMS-Density change    ...    5.2953e-07  Tolerance :   1.0000e-06
  Last DIIS Error            ...    6.0335e-06  Tolerance :   1.0000e-06

             **** THE GBW FILE WAS UPDATED (system.gbw) ****
             **** DENSITY FILE WAS UPDATED (system.scfp.tmp) ****
             **** ENERGY FILE WAS UPDATED (system.en.tmp) ****
----------------------
UHF SPIN CONTAMINATION
----------------------

Warning: in a DFT calculation there is little theoretical justification to 
         calculate <S**2> as in Hartree-Fock theory. We will do it anyways
         but you should keep in mind that the values have only limited relevance

Expectation value of <S**2>     :     0.761272
Ideal value S*(S+1) for S=0.5   :     0.750000
Deviation                       :     0.011272

----------------
ORBITAL ENERGIES
----------------
                 SPIN UP ORBITALS
  NO   OCC          E(Eh)            E(eV) 
   0   1.0000     -88.846276     -2417.6301 
   1   1.0000     -10.003962      -272.2217 
   2   1.0000     -10.003428      -272.2071 
   3   1.0000      -9.999771      -272.1076 
   4   1.0000      -9.999768      -272.1075 
   5   1.0000      -7.728132      -210.2932 
   6   1.0000      -5.646382      -153.6459 
   7   1.0000      -5.642361      -153.5365 
   8   1.0000      -5.630349      -153.2096 
   9   1.0000      -0.692841       -18.8532 
  10   1.0000      -0.536141       -14.5891 
  11   1.0000      -0.525419       -14.2974 
  12   1.0000      -0.358837        -9.7644 
  13   1.0000      -0.355691        -9.6788 
  14   1.0000      -0.318180        -8.6581 
  15   1.0000      -0.204186        -5.5562 
  16   1.0000      -0.190005        -5.1703 
  17   1.0000      -0.185040        -5.0352 
  18   1.0000      -0.183635        -4.9969 
  19   1.0000      -0.135354        -3.6832 
  20   1.0000      -0.055308        -1.5050 
  21   1.0000      -0.045812        -1.2466 
  22   1.0000       0.137123         3.7313 
  23   0.0000       0.222229         6.0472 
  24   0.0000       0.238157         6.4806 
  25   0.0000       0.256129         6.9696 
  26   0.0000       0.257966         7.0196 
  27   0.0000       0.261343         7.1115 
  28   0.0000       0.295823         8.0498 
  29   0.0000       0.304054         8.2737 
  30   0.0000       0.396335        10.7848 
  31   0.0000       0.410178        11.1615 
  32   0.0000       0.432990        11.7823 
  33   0.0000       0.463242        12.6054 
  34   0.0000       0.463907        12.6235 
  35   0.0000       0.495399        13.4805 
  36   0.0000       0.514585        14.0026 
  37   0.0000       0.523642        14.2490 
  38   0.0000       0.540316        14.7027 
  39   0.0000       0.570291        15.5184 
  40   0.0000       0.572758        15.5855 
  41   0.0000       0.586405        15.9569 
  42   0.0000       0.587102        15.9759 
  43   0.0000       0.595864        16.2143 
  44   0.0000       0.607414        16.5286 
  45   0.0000       0.620845        16.8940 
  46   0.0000       0.622427        16.9371 
  47   0.0000       0.641627        17.4596 
  48   0.0000       0.642853        17.4929 
  49   0.0000       0.661887        18.0109 
  50   0.0000       0.673686        18.3319 
  51   0.0000       0.701304        19.0835 
  52   0.0000       0.713418        19.4131 
  53   0.0000       0.781150        21.2562 
  54   0.0000       0.822718        22.3873 
  55   0.0000       0.823119        22.3982 
  56   0.0000       0.868016        23.6199 
  57   0.0000       0.898454        24.4482 
  58   0.0000       0.904951        24.6250 
  59   0.0000       0.907436        24.6926 
  60   0.0000       0.919530        25.0217 
  61   0.0000       0.989284        26.9198 
  62   0.0000       1.009274        27.4637 
  63   0.0000       1.038843        28.2684 
  64   0.0000       1.082862        29.4662 
  65   0.0000       1.103468        30.0269 
  66   0.0000       1.128017        30.6949 
  67   0.0000       1.157845        31.5066 
  68   0.0000       1.170166        31.8418 
  69   0.0000       1.195860        32.5410 
  70   0.0000       1.205393        32.8004 
  71   0.0000       1.251601        34.0578 
  72   0.0000       1.259404        34.2701 
  73   0.0000       1.267701        34.4959 
  74   0.0000       1.317585        35.8533 
  75   0.0000       1.344314        36.5807 
  76   0.0000       1.397802        38.0361 
  77   0.0000       1.413530        38.4641 
  78   0.0000       1.434823        39.0435 
  79   0.0000       1.449022        39.4299 
  80   0.0000       1.472044        40.0564 
  81   0.0000       1.476131        40.1676 
  82   0.0000       1.511914        41.1413 
  83   0.0000       1.520279        41.3689 
  84   0.0000       1.545597        42.0578 
  85   0.0000       1.595258        43.4092 
  86   0.0000       1.613187        43.8971 
  87   0.0000       1.620272        44.0898 
  88   0.0000       1.681125        45.7457 
  89   0.0000       1.706400        46.4335 
  90   0.0000       1.765939        48.0536 
  91   0.0000       1.805712        49.1359 
  92   0.0000       1.809010        49.2257 
  93   0.0000       1.823980        49.6330 
  94   0.0000       1.849592        50.3300 
  95   0.0000       1.908513        51.9333 
  96   0.0000       1.980685        53.8972 
  97   0.0000       2.050288        55.7912 
  98   0.0000       2.076107        56.4937 
  99   0.0000       2.104540        57.2675 
 100   0.0000       2.160922        58.8017 
 101   0.0000       2.168781        59.0155 
 102   0.0000       2.186481        59.4972 
 103   0.0000       2.187333        59.5204 
 104   0.0000       2.196573        59.7718 
 105   0.0000       2.266360        61.6708 
 106   0.0000       2.336380        63.5761 
 107   0.0000       2.367124        64.4127 
 108   0.0000       2.434454        66.2449 
 109   0.0000       2.468126        67.1611 
 110   0.0000       2.486713        67.6669 
 111   0.0000       2.487471        67.6875 
 112   0.0000       2.521367        68.6099 
 113   0.0000       2.623912        71.4003 
 114   0.0000       2.663111        72.4669 
 115   0.0000       2.677528        72.8592 
 116   0.0000       2.682602        72.9973 
 117   0.0000       2.703663        73.5704 
 118   0.0000       2.779791        75.6420 
 119   0.0000       2.805277        76.3355 
 120   0.0000       2.867545        78.0299 
 121   0.0000       2.880580        78.3846 
 122   0.0000       2.902973        78.9939 
 123   0.0000       2.940891        80.0257 
 124   0.0000       2.964349        80.6640 
 125   0.0000       3.031004        82.4778 
 126   0.0000       3.037040        82.6421 
 127   0.0000       3.055566        83.1462 
 128   0.0000       3.097385        84.2841 
 129   0.0000       3.133920        85.2783 
 130   0.0000       3.164951        86.1227 
 131   0.0000       3.171235        86.2937 
 132   0.0000       3.186813        86.7176 
 133   0.0000       3.206381        87.2501 
 134   0.0000       3.221809        87.6699 
 135   0.0000       3.250812        88.4591 
 136   0.0000       3.255059        88.5747 
 137   0.0000       3.319964        90.3408 
 138   0.0000       3.330556        90.6290 
 139   0.0000       3.336900        90.8017 
 140   0.0000       3.361030        91.4583 
 141   0.0000       3.365767        91.5872 
 142   0.0000       3.397686        92.4557 
 143   0.0000       3.416055        92.9556 
 144   0.0000       3.445164        93.7477 
 145   0.0000       3.445291        93.7511 
 146   0.0000       3.476461        94.5993 
 147   0.0000       3.483140        94.7810 
 148   0.0000       3.556884        96.7877 
 149   0.0000       3.582812        97.4933 
 150   0.0000       3.590388        97.6994 
 151   0.0000       3.620999        98.5324 
 152   0.0000       3.661362        99.6307 
 153   0.0000       3.693082       100.4939 
 154   0.0000       3.702575       100.7522 
 155   0.0000       3.718793       101.1935 
 156   0.0000       3.786889       103.0465 
 157   0.0000       3.829583       104.2082 
 158   0.0000       3.846168       104.6595 
 159   0.0000       3.889243       105.8317 
 160   0.0000       3.894426       105.9727 
 161   0.0000       3.910079       106.3986 
 162   0.0000       3.962789       107.8330 
 163   0.0000       4.013065       109.2010 
 164   0.0000       4.014614       109.2432 
 165   0.0000       4.042176       109.9932 
 166   0.0000       4.063092       110.5623 
 167   0.0000       4.086577       111.2014 
 168   0.0000       4.140183       112.6601 
 169   0.0000       4.169723       113.4639 
 170   0.0000       4.169878       113.4681 
 171   0.0000       4.176328       113.6437 
 172   0.0000       4.260246       115.9272 
 173   0.0000       4.290900       116.7613 
 174   0.0000       4.309403       117.2648 
 175   0.0000       4.405149       119.8702 
 176   0.0000       4.416259       120.1725 
 177   0.0000       4.472656       121.7072 
 178   0.0000       4.512650       122.7954 
 179   0.0000       4.556796       123.9967 
 180   0.0000       4.571915       124.4081 
 181   0.0000       4.590644       124.9178 
 182   0.0000       4.607905       125.3875 
 183   0.0000       4.684619       127.4750 
 184   0.0000       4.733585       128.8074 
 185   0.0000       4.794942       130.4770 
 186   0.0000       4.799641       130.6049 
 187   0.0000       4.874993       132.6553 
 188   0.0000       4.904099       133.4473 
 189   0.0000       5.040496       137.1589 
 190   0.0000       5.047548       137.3508 
 191   0.0000       5.154605       140.2639 
 192   0.0000       5.198232       141.4511 
 193   0.0000       5.223031       142.1259 
 194   0.0000       5.242285       142.6498 
 195   0.0000       5.260951       143.1578 
 196   0.0000       5.365649       146.0067 
 197   0.0000       5.509965       149.9338 
 198   0.0000       5.562859       151.3731 
 199   0.0000       5.800339       157.8353 
 200   0.0000       5.853668       159.2864 
 201   0.0000       5.957978       162.1248 
 202   0.0000       6.053869       164.7342 
 203   0.0000       6.145674       167.2323 
 204   0.0000       6.412445       174.4915 
 205   0.0000       6.597358       179.5232 
 206   0.0000       9.857711       268.2419 
 207   0.0000      11.697072       318.2935 
 208   0.0000      13.126125       357.1800 
 209   0.0000      13.967701       380.0805 

                 SPIN DOWN ORBITALS
  NO   OCC          E(Eh)            E(eV) 
   0   1.0000     -88.845477     -2417.6083 
   1   1.0000     -10.003612      -272.2121 
   2   1.0000     -10.003090      -272.1979 
   3   1.0000      -9.993688      -271.9421 
   4   1.0000      -9.993670      -271.9416 
   5   1.0000      -7.727306      -210.2707 
   6   1.0000      -5.646196      -153.6408 
   7   1.0000      -5.642147      -153.5306 
   8   1.0000      -5.626476      -153.1042 
   9   1.0000      -0.686522       -18.6812 
  10   1.0000      -0.530859       -14.4454 
  11   1.0000      -0.514892       -14.0109 
  12   1.0000      -0.352021        -9.5790 
  13   1.0000      -0.346718        -9.4347 
  14   1.0000      -0.314662        -8.5624 
  15   1.0000      -0.201311        -5.4779 
  16   1.0000      -0.181990        -4.9522 
  17   1.0000      -0.180980        -4.9247 
  18   1.0000      -0.170019        -4.6265 
  19   1.0000      -0.127420        -3.4673 
  20   1.0000      -0.035768        -0.9733 
  21   1.0000      -0.011246        -0.3060 
  22   0.0000       0.223475         6.0811 
  23   0.0000       0.231641         6.3033 
  24   0.0000       0.241559         6.5732 
  25   0.0000       0.257676         7.0117 
  26   0.0000       0.259846         7.0708 
  27   0.0000       0.275232         7.4894 
  28   0.0000       0.298356         8.1187 
  29   0.0000       0.309558         8.4235 
  30   0.0000       0.398818        10.8524 
  31   0.0000       0.411018        11.1844 
  32   0.0000       0.437183        11.8964 
  33   0.0000       0.466803        12.7023 
  34   0.0000       0.471072        12.8185 
  35   0.0000       0.500487        13.6189 
  36   0.0000       0.521095        14.1797 
  37   0.0000       0.538111        14.6427 
  38   0.0000       0.545902        14.8548 
  39   0.0000       0.573193        15.5974 
  40   0.0000       0.576368        15.6838 
  41   0.0000       0.590297        16.0628 
  42   0.0000       0.596042        16.2191 
  43   0.0000       0.615222        16.7410 
  44   0.0000       0.626035        17.0353 
  45   0.0000       0.627066        17.0633 
  46   0.0000       0.633600        17.2411 
  47   0.0000       0.646207        17.5842 
  48   0.0000       0.653170        17.7736 
  49   0.0000       0.666209        18.1285 
  50   0.0000       0.679372        18.4866 
  51   0.0000       0.705985        19.2108 
  52   0.0000       0.718058        19.5393 
  53   0.0000       0.783030        21.3073 
  54   0.0000       0.832842        22.6628 
  55   0.0000       0.833382        22.6775 
  56   0.0000       0.871927        23.7263 
  57   0.0000       0.907462        24.6933 
  58   0.0000       0.907793        24.7023 
  59   0.0000       0.910016        24.7628 
  60   0.0000       0.927824        25.2474 
  61   0.0000       0.994163        27.0526 
  62   0.0000       1.010346        27.4929 
  63   0.0000       1.046116        28.4663 
  64   0.0000       1.087008        29.5790 
  65   0.0000       1.112931        30.2844 
  66   0.0000       1.138245        30.9732 
  67   0.0000       1.160305        31.5735 
  68   0.0000       1.174664        31.9642 
  69   0.0000       1.199120        32.6297 
  70   0.0000       1.212240        32.9867 
  71   0.0000       1.253360        34.1057 
  72   0.0000       1.260695        34.3053 
  73   0.0000       1.280455        34.8429 
  74   0.0000       1.323392        36.0113 
  75   0.0000       1.351890        36.7868 
  76   0.0000       1.398592        38.0576 
  77   0.0000       1.422893        38.7189 
  78   0.0000       1.440184        39.1894 
  79   0.0000       1.451771        39.5047 
  80   0.0000       1.475361        40.1466 
  81   0.0000       1.478221        40.2244 
  82   0.0000       1.522353        41.4253 
  83   0.0000       1.523096        41.4455 
  84   0.0000       1.553727        42.2791 
  85   0.0000       1.599822        43.5334 
  86   0.0000       1.619491        44.0686 
  87   0.0000       1.626287        44.2535 
  88   0.0000       1.686965        45.9047 
  89   0.0000       1.710510        46.5453 
  90   0.0000       1.769218        48.1429 
  91   0.0000       1.813379        49.3445 
  92   0.0000       1.815981        49.4153 
  93   0.0000       1.828364        49.7523 
  94   0.0000       1.857118        50.5348 
  95   0.0000       1.909757        51.9671 
  96   0.0000       1.986271        54.0492 
  97   0.0000       2.058482        56.0141 
  98   0.0000       2.084083        56.7108 
  99   0.0000       2.120881        57.7121 
 100   0.0000       2.166276        58.9474 
 101   0.0000       2.172209        59.1088 
 102   0.0000       2.199907        59.8625 
 103   0.0000       2.203606        59.9632 
 104   0.0000       2.204180        59.9788 
 105   0.0000       2.270362        61.7797 
 106   0.0000       2.341914        63.7267 
 107   0.0000       2.381315        64.7989 
 108   0.0000       2.436680        66.3054 
 109   0.0000       2.470209        67.2178 
 110   0.0000       2.489992        67.7561 
 111   0.0000       2.505334        68.1736 
 112   0.0000       2.526393        68.7467 
 113   0.0000       2.627144        71.4882 
 114   0.0000       2.676743        72.8379 
 115   0.0000       2.683466        73.0208 
 116   0.0000       2.687481        73.1301 
 117   0.0000       2.709854        73.7389 
 118   0.0000       2.786981        75.8376 
 119   0.0000       2.818073        76.6837 
 120   0.0000       2.875466        78.2454 
 121   0.0000       2.889230        78.6199 
 122   0.0000       2.906410        79.0874 
 123   0.0000       2.944486        80.1235 
 124   0.0000       2.971683        80.8636 
 125   0.0000       3.040241        82.7292 
 126   0.0000       3.041994        82.7769 
 127   0.0000       3.064503        83.3894 
 128   0.0000       3.100742        84.3755 
 129   0.0000       3.144713        85.5720 
 130   0.0000       3.171151        86.2914 
 131   0.0000       3.174843        86.3919 
 132   0.0000       3.193446        86.8981 
 133   0.0000       3.217358        87.5488 
 134   0.0000       3.230890        87.9170 
 135   0.0000       3.259479        88.6949 
 136   0.0000       3.263942        88.8164 
 137   0.0000       3.326104        90.5079 
 138   0.0000       3.332161        90.6727 
 139   0.0000       3.345481        91.0352 
 140   0.0000       3.366574        91.6091 
 141   0.0000       3.370750        91.7228 
 142   0.0000       3.415803        92.9487 
 143   0.0000       3.426231        93.2325 
 144   0.0000       3.448802        93.8467 
 145   0.0000       3.450461        93.8918 
 146   0.0000       3.483446        94.7894 
 147   0.0000       3.496719        95.1506 
 148   0.0000       3.560713        96.8919 
 149   0.0000       3.586446        97.5922 
 150   0.0000       3.599660        97.9517 
 151   0.0000       3.631663        98.8226 
 152   0.0000       3.663999        99.7025 
 153   0.0000       3.697839       100.6233 
 154   0.0000       3.710220       100.9602 
 155   0.0000       3.725279       101.3700 
 156   0.0000       3.797232       103.3279 
 157   0.0000       3.831296       104.2549 
 158   0.0000       3.847488       104.6955 
 159   0.0000       3.893128       105.9374 
 160   0.0000       3.897497       106.0563 
 161   0.0000       3.916153       106.5639 
 162   0.0000       3.970089       108.0316 
 163   0.0000       4.014819       109.2488 
 164   0.0000       4.018925       109.3605 
 165   0.0000       4.043350       110.0251 
 166   0.0000       4.068772       110.7169 
 167   0.0000       4.091424       111.3333 
 168   0.0000       4.142251       112.7164 
 169   0.0000       4.172457       113.5383 
 170   0.0000       4.172698       113.5449 
 171   0.0000       4.181573       113.7864 
 172   0.0000       4.263630       116.0193 
 173   0.0000       4.292669       116.8095 
 174   0.0000       4.309794       117.2754 
 175   0.0000       4.406824       119.9158 
 176   0.0000       4.419119       120.2503 
 177   0.0000       4.472833       121.7120 
 178   0.0000       4.515354       122.8690 
 179   0.0000       4.556995       124.0021 
 180   0.0000       4.578438       124.5856 
 181   0.0000       4.601460       125.2121 
 182   0.0000       4.609348       125.4267 
 183   0.0000       4.686059       127.5141 
 184   0.0000       4.735829       128.8685 
 185   0.0000       4.796713       130.5252 
 186   0.0000       4.800234       130.6210 
 187   0.0000       4.881560       132.8340 
 188   0.0000       4.907564       133.5416 
 189   0.0000       5.048049       137.3644 
 190   0.0000       5.049211       137.3960 
 191   0.0000       5.157737       140.3492 
 192   0.0000       5.199622       141.4889 
 193   0.0000       5.231089       142.3452 
 194   0.0000       5.242509       142.6559 
 195   0.0000       5.261677       143.1775 
 196   0.0000       5.367312       146.0520 
 197   0.0000       5.510662       149.9527 
 198   0.0000       5.567127       151.4892 
 199   0.0000       5.801028       157.8540 
 200   0.0000       5.855504       159.3364 
 201   0.0000       5.958436       162.1373 
 202   0.0000       6.055066       164.7667 
 203   0.0000       6.148009       167.2958 
 204   0.0000       6.413103       174.5094 
 205   0.0000       6.598554       179.5558 
 206   0.0000       9.862156       268.3629 
 207   0.0000      11.702733       318.4476 
 208   0.0000      13.130914       357.3103 
 209   0.0000      13.971006       380.1704 

                    ********************************
                    * MULLIKEN POPULATION ANALYSIS *
                    ********************************

--------------------------------------------
MULLIKEN ATOMIC CHARGES AND SPIN POPULATIONS
--------------------------------------------
   0 C :   -0.184562    0.042018
   1 C :   -0.333693    0.381392
   2 S :   -0.137167    0.212281
   3 C :   -0.333265    0.381413
   4 C :   -0.184583    0.042007
   5 H :    0.029408   -0.005763
   6 H :    0.057405   -0.023796
   7 H :    0.057146   -0.023791
   8 H :    0.029309   -0.005760
Sum of atomic charges         :   -1.0000000
Sum of atomic spin populations:    1.0000000

-----------------------------------------------------
MULLIKEN REDUCED ORBITAL CHARGES AND SPIN POPULATIONS
-----------------------------------------------------
CHARGE
  0 C s       :     3.237351  s :     3.237351
      pz      :     0.997385  p :     2.838243
      px      :     0.869537
      py      :     0.971321
      dz2     :     0.021254  d :     0.099565
      dxz     :     0.026388
      dyz     :     0.006828
      dx2y2   :     0.018227
      dxy     :     0.026868
      f0      :     0.001057  f :     0.009403
      f+1     :     0.000949
      f-1     :     0.001389
      f+2     :     0.001488
      f-2     :     0.001496
      f+3     :     0.001602
      f-3     :     0.001422
  1 C s       :     3.205140  s :     3.205140
      pz      :     1.120288  p :     3.032193
      px      :     0.846737
      py      :     1.065168
      dz2     :     0.010462  d :     0.087441
      dxz     :     0.025723
      dyz     :     0.009785
      dx2y2   :     0.015532
      dxy     :     0.025939
      f0      :     0.000749  f :     0.008918
      f+1     :     0.001299
      f-1     :     0.001102
      f+2     :     0.001664
      f-2     :     0.001299
      f+3     :     0.001563
      f-3     :     0.001242
  2 S s       :     5.676169  s :     5.676169
      pz      :     3.415399  p :    10.212185
      px      :     3.471668
      py      :     3.325117
      dz2     :     0.045794  d :     0.226380
      dxz     :     0.058578
      dyz     :     0.028103
      dx2y2   :     0.033600
      dxy     :     0.060305
      f0      :     0.002001  f :     0.022433
      f+1     :     0.003935
      f-1     :     0.002497
      f+2     :     0.003003
      f-2     :     0.004057
      f+3     :     0.003620
      f-3     :     0.003321
  3 C s       :     3.204841  s :     3.204841
      pz      :     1.119859  p :     3.032153
      px      :     0.847076
      py      :     1.065217
      dz2     :     0.010430  d :     0.087357
      dxz     :     0.025838
      dyz     :     0.009700
      dx2y2   :     0.015383
      dxy     :     0.026006
      f0      :     0.000756  f :     0.008914
      f+1     :     0.001287
      f-1     :     0.001102
      f+2     :     0.001670
      f-2     :     0.001295
      f+3     :     0.001557
      f-3     :     0.001246
  4 C s       :     3.237442  s :     3.237442
      pz      :     0.997385  p :     2.838234
      px      :     0.869630
      py      :     0.971219
      dz2     :     0.020984  d :     0.099506
      dxz     :     0.026660
      dyz     :     0.006827
      dx2y2   :     0.018123
      dxy     :     0.026912
      f0      :     0.001068  f :     0.009400
      f+1     :     0.000931
      f-1     :     0.001389
      f+2     :     0.001494
      f-2     :     0.001491
      f+3     :     0.001600
      f-3     :     0.001427
  5 H s       :     0.936188  s :     0.936188
      pz      :     0.013728  p :     0.032061
      px      :     0.006034
      py      :     0.012299
      dz2     :     0.000409  d :     0.002342
      dxz     :     0.000472
      dyz     :     0.000289
      dx2y2   :     0.000718
      dxy     :     0.000454
  6 H s       :     0.901369  s :     0.901369
      pz      :     0.017186  p :     0.038680
      px      :     0.007858
      py      :     0.013636
      dz2     :     0.000838  d :     0.002546
      dxz     :     0.000387
      dyz     :     0.000368
      dx2y2   :     0.000509
      dxy     :     0.000445
  7 H s       :     0.901598  s :     0.901598
      pz      :     0.017246  p :     0.038709
      px      :     0.007814
      py      :     0.013649
      dz2     :     0.000835  d :     0.002547
      dxz     :     0.000384
      dyz     :     0.000372
      dx2y2   :     0.000515
      dxy     :     0.000441
  8 H s       :     0.936270  s :     0.936270
      pz      :     0.013718  p :     0.032078
      px      :     0.006068
      py      :     0.012292
      dz2     :     0.000415  d :     0.002342
      dxz     :     0.000466
      dyz     :     0.000292
      dx2y2   :     0.000719
      dxy     :     0.000450

SPIN
  0 C s       :     0.003126  s :     0.003126
      pz      :     0.017531  p :     0.028790
      px      :    -0.002583
      py      :     0.013843
      dz2     :     0.003201  d :     0.009908
      dxz     :     0.003760
      dyz     :    -0.000173
      dx2y2   :     0.001229
      dxy     :     0.001891
      f0      :     0.000100  f :     0.000194
      f+1     :     0.000022
      f-1     :    -0.000028
      f+2     :    -0.000026
      f-2     :    -0.000037
      f+3     :     0.000034
      f-3     :     0.000129
  1 C s       :     0.024268  s :     0.024268
      pz      :     0.192136  p :     0.358819
      px      :     0.011035
      py      :     0.155648
      dz2     :    -0.000322  d :    -0.000826
      dxz     :    -0.000285
      dyz     :    -0.000451
      dx2y2   :     0.000433
      dxy     :    -0.000202
      f0      :    -0.000104  f :    -0.000869
      f+1     :    -0.000018
      f-1     :    -0.000213
      f+2     :    -0.000288
      f-2     :    -0.000125
      f+3     :    -0.000014
      f-3     :    -0.000106
  2 S s       :     0.014933  s :     0.014933
      pz      :     0.106767  p :     0.166850
      px      :    -0.021877
      py      :     0.081960
      dz2     :    -0.001188  d :     0.029747
      dxz     :     0.016554
      dyz     :     0.001831
      dx2y2   :    -0.000420
      dxy     :     0.012970
      f0      :    -0.000039  f :     0.000751
      f+1     :     0.000119
      f-1     :     0.000535
      f+2     :     0.000251
      f-2     :    -0.000215
      f+3     :     0.000129
      f-3     :    -0.000028
  3 C s       :     0.024254  s :     0.024254
      pz      :     0.192067  p :     0.358856
      px      :     0.011058
      py      :     0.155731
      dz2     :    -0.000335  d :    -0.000828
      dxz     :    -0.000260
      dyz     :    -0.000454
      dx2y2   :     0.000417
      dxy     :    -0.000196
      f0      :    -0.000104  f :    -0.000870
      f+1     :    -0.000020
      f-1     :    -0.000213
      f+2     :    -0.000287
      f-2     :    -0.000126
      f+3     :    -0.000015
      f-3     :    -0.000106
  4 C s       :     0.003124  s :     0.003124
      pz      :     0.017626  p :     0.028791
      px      :    -0.002657
      py      :     0.013821
      dz2     :     0.003117  d :     0.009898
      dxz     :     0.003819
      dyz     :    -0.000177
      dx2y2   :     0.001243
      dxy     :     0.001897
      f0      :     0.000101  f :     0.000194
      f+1     :     0.000021
      f-1     :    -0.000027
      f+2     :    -0.000026
      f-2     :    -0.000039
      f+3     :     0.000035
      f-3     :     0.000130
  5 H s       :    -0.006727  s :    -0.006727
      pz      :     0.000741  p :     0.000889
      px      :    -0.000173
      py      :     0.000321
      dz2     :     0.000070  d :     0.000075
      dxz     :    -0.000004
      dyz     :    -0.000013
      dx2y2   :     0.000029
      dxy     :    -0.000007
  6 H s       :    -0.032523  s :    -0.032523
      pz      :     0.005082  p :     0.008289
      px      :    -0.000292
      py      :     0.003498
      dz2     :     0.000300  d :     0.000438
      dxz     :     0.000017
      dyz     :    -0.000003
      dx2y2   :     0.000114
      dxy     :     0.000010
  7 H s       :    -0.032517  s :    -0.032517
      pz      :     0.005086  p :     0.008288
      px      :    -0.000290
      py      :     0.003492
      dz2     :     0.000298  d :     0.000438
      dxz     :     0.000018
      dyz     :    -0.000002
      dx2y2   :     0.000114
      dxy     :     0.000010
  8 H s       :    -0.006730  s :    -0.006730
      pz      :     0.000750  p :     0.000894
      px      :    -0.000172
      py      :     0.000316
      dz2     :     0.000071  d :     0.000075
      dxz     :    -0.000004
      dyz     :    -0.000013
      dx2y2   :     0.000029
      dxy     :    -0.000007


                     *******************************
                     * LOEWDIN POPULATION ANALYSIS *
                     *******************************

-------------------------------------------
LOEWDIN ATOMIC CHARGES AND SPIN POPULATIONS
-------------------------------------------
   0 C :   -0.144068    0.077780
   1 C :   -0.364270    0.256533
   2 S :    0.393434    0.259562
   3 C :   -0.364287    0.256559
   4 C :   -0.144030    0.077770
   5 H :   -0.076573    0.004642
   6 H :   -0.111810    0.031257
   7 H :   -0.111822    0.031254
   8 H :   -0.076573    0.004643

----------------------------------------------------
LOEWDIN REDUCED ORBITAL CHARGES AND SPIN POPULATIONS
----------------------------------------------------
CHARGE
  0 C s       :     2.702349  s :     2.702349
      pz      :     0.964166  p :     2.917126
      px      :     0.986657
      py      :     0.966304
      dz2     :     0.086846  d :     0.474122
      dxz     :     0.111404
      dyz     :     0.050817
      dx2y2   :     0.104037
      dxy     :     0.121018
      f0      :     0.006459  f :     0.050470
      f+1     :     0.006170
      f-1     :     0.004392
      f+2     :     0.006691
      f-2     :     0.007890
      f+3     :     0.009806
      f-3     :     0.009061
  1 C s       :     2.741838  s :     2.741838
      pz      :     1.060132  p :     3.119728
      px      :     1.019363
      py      :     1.040233
      dz2     :     0.056066  d :     0.455992
      dxz     :     0.120461
      dyz     :     0.053828
      dx2y2   :     0.098265
      dxy     :     0.127373
      f0      :     0.004013  f :     0.046712
      f+1     :     0.008110
      f-1     :     0.003397
      f+2     :     0.006960
      f-2     :     0.006990
      f+3     :     0.009466
      f-3     :     0.007776
  2 S s       :     5.235536  s :     5.235536
      pz      :     3.292305  p :     9.843403
      px      :     3.333098
      py      :     3.218000
      dz2     :     0.088266  d :     0.456011
      dxz     :     0.116173
      dyz     :     0.059173
      dx2y2   :     0.075366
      dxy     :     0.117034
      f0      :     0.005035  f :     0.071616
      f+1     :     0.012794
      f-1     :     0.008029
      f+2     :     0.010914
      f-2     :     0.010895
      f+3     :     0.012435
      f-3     :     0.011514
  3 C s       :     2.741837  s :     2.741837
      pz      :     1.059917  p :     3.119695
      px      :     1.019591
      py      :     1.040187
      dz2     :     0.056103  d :     0.456041
      dxz     :     0.120871
      dyz     :     0.053655
      dx2y2   :     0.097785
      dxy     :     0.127626
      f0      :     0.004064  f :     0.046715
      f+1     :     0.008036
      f-1     :     0.003416
      f+2     :     0.007003
      f-2     :     0.006953
      f+3     :     0.009433
      f-3     :     0.007809
  4 C s       :     2.702349  s :     2.702349
      pz      :     0.963985  p :     2.917152
      px      :     0.986906
      py      :     0.966261
      dz2     :     0.085902  d :     0.474057
      dxz     :     0.112138
      dyz     :     0.050779
      dx2y2   :     0.104014
      dxy     :     0.121223
      f0      :     0.006531  f :     0.050473
      f+1     :     0.006060
      f-1     :     0.004407
      f+2     :     0.006723
      f-2     :     0.007848
      f+3     :     0.009803
      f-3     :     0.009100
  5 H s       :     0.875228  s :     0.875228
      pz      :     0.055328  p :     0.172205
      px      :     0.062670
      py      :     0.054207
      dz2     :     0.004430  d :     0.029141
      dxz     :     0.007173
      dyz     :     0.002647
      dx2y2   :     0.007527
      dxy     :     0.007365
  6 H s       :     0.883560  s :     0.883560
      pz      :     0.079154  p :     0.196825
      px      :     0.039445
      py      :     0.078227
      dz2     :     0.008896  d :     0.031425
      dxz     :     0.004142
      dyz     :     0.007523
      dx2y2   :     0.005897
      dxy     :     0.004966
  7 H s       :     0.883581  s :     0.883581
      pz      :     0.079080  p :     0.196817
      px      :     0.039540
      py      :     0.078197
      dz2     :     0.008861  d :     0.031424
      dxz     :     0.004156
      dyz     :     0.007504
      dx2y2   :     0.005922
      dxy     :     0.004980
  8 H s       :     0.875224  s :     0.875224
      pz      :     0.055457  p :     0.172207
      px      :     0.062496
      py      :     0.054253
      dz2     :     0.004472  d :     0.029142
      dxz     :     0.007150
      dyz     :     0.002685
      dx2y2   :     0.007500
      dxy     :     0.007334

SPIN
  0 C s       :    -0.000197  s :    -0.000197
      pz      :     0.013165  p :     0.021807
      px      :    -0.001617
      py      :     0.010260
      dz2     :     0.010567  d :     0.051751
      dxz     :     0.020632
      dyz     :    -0.000180
      dx2y2   :     0.004222
      dxy     :     0.016509
      f0      :     0.000804  f :     0.004419
      f+1     :     0.000576
      f-1     :    -0.000201
      f+2     :     0.001208
      f-2     :    -0.000038
      f+3     :     0.000369
      f-3     :     0.001703
  1 C s       :     0.007821  s :     0.007821
      pz      :     0.131454  p :     0.240915
      px      :     0.004245
      py      :     0.105215
      dz2     :     0.009172  d :     0.006224
      dxz     :    -0.002029
      dyz     :    -0.001636
      dx2y2   :     0.002486
      dxy     :    -0.001769
      f0      :    -0.000115  f :     0.001574
      f+1     :    -0.000164
      f-1     :     0.000706
      f+2     :     0.001083
      f-2     :    -0.000159
      f+3     :    -0.000153
      f-3     :     0.000375
  2 S s       :     0.002631  s :     0.002631
      pz      :     0.093842  p :     0.158758
      px      :    -0.008562
      py      :     0.073478
      dz2     :     0.000904  d :     0.089376
      dxz     :     0.047412
      dyz     :     0.003004
      dx2y2   :     0.000130
      dxy     :     0.037927
      f0      :     0.000354  f :     0.008796
      f+1     :     0.000716
      f-1     :     0.004588
      f+2     :     0.002473
      f-2     :    -0.000071
      f+3     :     0.000569
      f-3     :     0.000168
  3 C s       :     0.007822  s :     0.007822
      pz      :     0.131437  p :     0.240941
      px      :     0.004242
      py      :     0.105262
      dz2     :     0.009136  d :     0.006221
      dxz     :    -0.001993
      dyz     :    -0.001629
      dx2y2   :     0.002479
      dxy     :    -0.001772
      f0      :    -0.000118  f :     0.001574
      f+1     :    -0.000162
      f-1     :     0.000706
      f+2     :     0.001085
      f-2     :    -0.000160
      f+3     :    -0.000152
      f-3     :     0.000376
  4 C s       :    -0.000197  s :    -0.000197
      pz      :     0.013181  p :     0.021796
      px      :    -0.001631
      py      :     0.010246
      dz2     :     0.010205  d :     0.051751
      dxz     :     0.020855
      dyz     :    -0.000169
      dx2y2   :     0.004301
      dxy     :     0.016558
      f0      :     0.000824  f :     0.004421
      f+1     :     0.000541
      f-1     :    -0.000202
      f+2     :     0.001215
      f-2     :    -0.000038
      f+3     :     0.000374
      f-3     :     0.001708
  5 H s       :    -0.001281  s :    -0.001281
      pz      :     0.003171  p :     0.005456
      px      :    -0.000228
      py      :     0.002513
      dz2     :     0.000381  d :     0.000467
      dxz     :     0.000008
      dyz     :    -0.000016
      dx2y2   :     0.000086
      dxy     :     0.000008
  6 H s       :    -0.008068  s :    -0.008068
      pz      :     0.018904  p :     0.034989
      px      :     0.000438
      py      :     0.015647
      dz2     :     0.002842  d :     0.004336
      dxz     :     0.000212
      dyz     :     0.000049
      dx2y2   :     0.001034
      dxy     :     0.000199
  7 H s       :    -0.008069  s :    -0.008069
      pz      :     0.018910  p :     0.034986
      px      :     0.000443
      py      :     0.015633
      dz2     :     0.002826  d :     0.004337
      dxz     :     0.000223
      dyz     :     0.000050
      dx2y2   :     0.001037
      dxy     :     0.000201
  8 H s       :    -0.001281  s :    -0.001281
      pz      :     0.003173  p :     0.005457
      px      :    -0.000232
      py      :     0.002516
      dz2     :     0.000385  d :     0.000467
      dxz     :     0.000005
      dyz     :    -0.000017
      dx2y2   :     0.000085
      dxy     :     0.000008


                      *****************************
                      * MAYER POPULATION ANALYSIS *
                      *****************************

  NA   - Mulliken gross atomic population
  ZA   - Total nuclear charge
  QA   - Mulliken gross atomic charge
  VA   - Mayer's total valence
  BVA  - Mayer's bonded valence
  FA   - Mayer's free valence

  ATOM       NA         ZA         QA         VA         BVA        FA
  0 C      6.1846     6.0000    -0.1846     3.8512     3.8424     0.0088
  1 C      6.3337     6.0000    -0.3337     3.6767     3.5559     0.1208
  2 S     16.1372    16.0000    -0.1372     2.5174     2.4439     0.0735
  3 C      6.3333     6.0000    -0.3333     3.6767     3.5560     0.1208
  4 C      6.1846     6.0000    -0.1846     3.8517     3.8429     0.0088
  5 H      0.9706     1.0000     0.0294     1.0049     1.0049     0.0001
  6 H      0.9426     1.0000     0.0574     1.0195     1.0184     0.0011
  7 H      0.9429     1.0000     0.0571     1.0196     1.0185     0.0011
  8 H      0.9707     1.0000     0.0293     1.0050     1.0049     0.0001

  Mayer bond orders larger than 0.1
B(  0-C ,  1-C ) :   1.3201 B(  0-C ,  4-C ) :   1.4290 B(  0-C ,  5-H ) :   0.9803 
B(  1-C ,  2-S ) :   1.1332 B(  1-C ,  6-H ) :   0.9864 B(  2-S ,  3-C ) :   1.1331 
B(  3-C ,  4-C ) :   1.3204 B(  3-C ,  7-H ) :   0.9864 B(  4-C ,  8-H ) :   0.9804 


-------
TIMINGS
-------

Total SCF time: 0 days 0 hours 0 min 8 sec 

Total time                  ....       8.696 sec
Sum of individual times     ....       8.602 sec  ( 98.9%)

Fock matrix formation       ....       7.700 sec  ( 88.5%)
  XC integration            ....       2.308 sec  ( 30.0% of F)
    Basis function eval.    ....       0.305 sec  ( 13.2% of XC)
    Density eval.           ....       0.438 sec  ( 19.0% of XC)
    XC-Functional eval.     ....       0.040 sec  (  1.7% of XC)
    XC-Potential eval.      ....       1.337 sec  ( 57.9% of XC)
Diagonalization             ....       0.303 sec  (  3.5%)
Density matrix formation    ....       0.009 sec  (  0.1%)
Population analysis         ....       0.031 sec  (  0.4%)
Initial guess               ....       0.166 sec  (  1.9%)
Orbital Transformation      ....       0.000 sec  (  0.0%)
Orbital Orthonormalization  ....       0.000 sec  (  0.0%)
DIIS solution               ....       0.097 sec  (  1.1%)
Grid generation             ....       0.297 sec  (  3.4%)

-------------------------   --------------------
FINAL SINGLE POINT ENERGY      -552.137095895030
-------------------------   --------------------


                            ***************************************
                            *     ORCA property calculations      *
                            ***************************************

                                    ---------------------
                                    Active property flags
                                    ---------------------
   (+) Dipole Moment


------------------------------------------------------------------------------
                       ORCA ELECTRIC PROPERTIES CALCULATION
------------------------------------------------------------------------------

Dipole Moment Calculation                       ... on
Quadrupole Moment Calculation                   ... off
Polarizability Calculation                      ... off
GBWName                                         ... system.gbw
Electron density file                           ... system.scfp.tmp
The origin for moment calculation is the CENTER OF MASS  = (19.750561, 19.480156 19.505000)

-------------
DIPOLE MOMENT
-------------
                                X             Y             Z
Electronic contribution:     -3.67553       0.00246      -0.01185
Nuclear contribution   :      3.63917      -0.00258       0.01150
                        -----------------------------------------
Total Dipole Moment    :     -0.03636      -0.00012      -0.00035
                        -----------------------------------------
Magnitude (a.u.)       :      0.03637
Magnitude (Debye)      :      0.09243


Timings for individual modules:

Sum of individual times         ...        9.116 sec (=   0.152 min)
GTO integral calculation        ...        0.360 sec (=   0.006 min)   3.9 %
SCF iterations                  ...        8.756 sec (=   0.146 min)  96.1 %
                             ****ORCA TERMINATED NORMALLY****
TOTAL RUN TIME: 0 days 0 hours 0 minutes 9 seconds 427 msec
