
                                 *****************
                                 * O   R   C   A *
                                 *****************

           --- An Ab Initio, DFT and Semiempirical electronic structure package ---

                  #######################################################
                  #                        -***-                        #
                  #  Department of molecular theory and spectroscopy    #
                  #              Directorship: Frank Neese              #
                  # Max Planck Institute for Chemical Energy Conversion #
                  #                  D-45470 Muelheim/Ruhr              #
                  #                       Germany                       #
                  #                                                     #
                  #                  All rights reserved                #
                  #                        -***-                        #
                  #######################################################


                         Program Version 4.0.1 -  RELEASE  -


 With contributions from (in alphabetic order):
   Daniel Aravena         : Magnetic Properties
   Michael Atanasov       : Ab Initio Ligand Field Theory
   Ute Becker             : Parallelization
   Martin Brehm           : Molecular dynamics
   Dmytro Bykov           : SCF Hessian
   Vijay G. Chilkuri      : MRCI spin determinant printing
   Dipayan Datta          : RHF DLPNO-CCSD density
   Achintya Kumar Dutta   : EOM-CC, STEOM-CC
   Dmitry Ganyushin       : Spin-Orbit,Spin-Spin,Magnetic field MRCI
   Yang Guo               : DLPNO-NEVPT2, CIM, IAO-localization
   Andreas Hansen         : Spin unrestricted coupled pair/coupled cluster methods
   Lee Huntington         : MR-EOM, pCC
   Robert Izsak           : Overlap fitted RIJCOSX, COSX-SCS-MP3, EOM
   Christian Kollmar      : KDIIS, OOCD, Brueckner-CCSD(T), CCSD density
   Simone Kossmann        : Meta GGA functionals, TD-DFT gradient, OOMP2, MP2 Hessian
   Martin Krupicka        : AUTO-CI
   Dagmar Lenk            : GEPOL surface
   Dimitrios Liakos       : Extrapolation schemes; parallel MDCI
   Dimitrios Manganas     : ROCIS; embedding schemes
   Dimitrios Pantazis     : SARC Basis sets
   Taras Petrenko         : DFT Hessian,TD-DFT gradient, ASA, ECA, R-Raman, ABS, FL, XAS/XES, NRVS
   Peter Pinski           : DLPNO-MP2
   Christoph Reimann      : Effective Core Potentials
   Marius Retegan         : Local ZFS, SOC
   Christoph Riplinger    : Optimizer, TS searches, QM/MM, DLPNO-CCSD(T), (RO)-DLPNO pert. Triples
   Tobias Risthaus        : Range-separated hybrids, TD-DFT gradient, RPA, STAB
   Michael Roemelt        : Restricted open shell CIS
   Masaaki Saitow         : Open-shell DLPNO
   Barbara Sandhoefer     : DKH picture change effects
   Kantharuban Sivalingam : CASSCF convergence, NEVPT2, FIC-MRCI
   Georgi Stoychev        : AutoAux
   Boris Wezisla          : Elementary symmetry handling
   Frank Wennmohs         : Technical directorship


 We gratefully acknowledge several colleagues who have allowed us to
 interface, adapt or use parts of their codes:
   Stefan Grimme, W. Hujo, H. Kruse,             : VdW corrections, initial TS optimization,
                  C. Bannwarth                     DFT functionals, gCP, sTDA/sTD-DF
   Ed Valeev                                     : LibInt (2-el integral package), F12 methods
   Garnet Chan, S. Sharma, J. Yang, R. Olivares  : DMRG
   Ulf Ekstrom                                   : XCFun DFT Library
   Mihaly Kallay                                 : mrcc  (arbitrary order and MRCC methods)
   Andreas Klamt, Michael Diedenhofen            : otool_cosmo (COSMO solvation model)
   Jiri Pittner, Ondrej Demel                    : Mk-CCSD
   Frank Weinhold                                : gennbo (NPA and NBO analysis)
   Christopher J. Cramer and Donald G. Truhlar   : smd solvation model


 Your calculation uses the libint2 library for the computation of 2-el integrals
 For citations please refer to: http://libint.valeyev.net

 This ORCA versions uses:
   CBLAS   interface :  Fast vector & matrix operations
   LAPACKE interface :  Fast linear algebra routines
   SCALAPACK package :  Parallel linear algebra routines


Your calculation utilizes the basis: cc-pVTZ 
       H, B-Ne : Obtained from the ccRepo (grant-hill.group.shef.ac.uk/ccrepo) Feb. 2017
                 T. H. Dunning, Jr., J. Chem. Phys. 90, 1007 (1989)
            He : Obtained from the ccRepo (grant-hill.group.shef.ac.uk/ccrepo) Feb. 2017
                 D. E. Woon, T. H. Dunning, Jr., J. Chem. Phys. 100, 2975 (1994)
  Li-Be, Na-Mg : Obtained from the ccRepo (grant-hill.group.shef.ac.uk/ccrepo) Feb. 2017
                 B. P. Prascher, D. E. Woon, K. A. Peterson, T. H. Dunning, Jr., A. K. Wilson, Theor. Chem. Acc. 128, 69 (2011)
         Al-Ar : Obtained from the ccRepo (grant-hill.group.shef.ac.uk/ccrepo) Feb. 2017
                 D. E. Woon, T. H. Dunning, Jr., J. Chem. Phys. 98, 1358 (1993)
            Ca : Obtained from the Peterson Research Group Website (tyr0.chem.wsu.edu/~kipeters) Feb. 2017
                 J. Koput, K. A. Peterson, J. Phys. Chem. 106, 9595 (2002)
         Sc-Zn : Obtained from the ccRepo (grant-hill.group.shef.ac.uk/ccrepo) Feb. 2017
                 N. B. Balabanov, K. A. Peterson, J. Chem. Phys. 123, 064107 (2005)
                 N. B. Balabanov, K. A. Peterson, J. Chem. Phys. 125, 074110 (2006)
         Ga-Kr : Obtained from the ccRepo (grant-hill.group.shef.ac.uk/ccrepo) Feb. 2017
                 A. K. Wilson, D. E. Woon, K. A. Peterson, T. H. Dunning, Jr., J. Chem. Phys. 110, 7667 (1999)
             Y : Obtained from the ccRepo (grant-hill.group.shef.ac.uk/ccrepo) Feb. 2017
                 K. A. Peterson, D. Figgen, M. Dolg, H. Stoll, J. Chem. Phys. 126, 124101 (2007)
        Ag, Au : Obtained from the Peterson Research Group Website (tyr0.chem.wsu.edu/~kipeters) Feb. 2017
                 K. A. Peterson, C. Puzzarini, Theor. Chem. Acc. 114, 283 (2005)

Your calculation utilizes the auxiliary basis: def2/J
   F. Weigend, Phys. Chem. Chem. Phys. 8, 1057 (2006).

================================================================================
                                        WARNINGS
                       Please study these warnings very carefully!
================================================================================

Warning: TCutStore was < 0. Adjusted to Thresh (uncritical)

WARNING: your system is open-shell and RHF/RKS was chosen
  ===> : WILL SWITCH to UHF/UKS


INFO   : the flag for use of LIBINT has been found!

================================================================================
                                       INPUT FILE
================================================================================
NAME = system.inp
|  1> * xyz  1 2
|  2>   C   11.78282594829233     10.81649346386566      9.87180433161099
|  3>   C   10.45899449417260     11.19904222317435      9.52727451754626
|  4>   S   9.29339360574428     10.31048075143597     10.31744739220619
|  5>   C   10.45105888682616      9.41870283236093     11.11558724151590
|  6>   C   11.77813220207481      9.79775715595355     10.78064743051664
|  7>   H   12.65976618436687     11.28894997108439      9.45231813281897
|  8>   H   10.19045646721663     11.98158554391282      8.82831650205907
|  9>   H   10.17489818126792      8.63671660483904     11.81219735590970
| 10>   H   12.65077403003839      9.32267145337330     11.20610709581628
| 11> * 
| 12> 
| 13> %pal
| 14>  nprocs 4
| 15> end
| 16> 
| 17>  
| 18> 
| 19> ! DFT  PBE0 RIJK cc-pVTZ
| 20> 
| 21> 
| 22>                          ****END OF INPUT****
================================================================================

                       ****************************
                       * Single Point Calculation *
                       ****************************

---------------------------------
CARTESIAN COORDINATES (ANGSTROEM)
---------------------------------
  C     11.782826   10.816493    9.871804
  C     10.458994   11.199042    9.527275
  S      9.293394   10.310481   10.317447
  C     10.451059    9.418703   11.115587
  C     11.778132    9.797757   10.780647
  H     12.659766   11.288950    9.452318
  H     10.190456   11.981586    8.828317
  H     10.174898    8.636717   11.812197
  H     12.650774    9.322671   11.206107

----------------------------
CARTESIAN COORDINATES (A.U.)
----------------------------
  NO LB      ZA    FRAG     MASS         X           Y           Z
   0 C     6.0000    0    12.011   22.266314   20.440210   18.655007
   1 C     6.0000    0    12.011   19.764635   21.163123   18.003940
   2 S    16.0000    0    32.060   17.561969   19.483985   19.497150
   3 C     6.0000    0    12.011   19.749639   17.798769   21.005416
   4 C     6.0000    0    12.011   22.257444   18.515078   20.372471
   5 H     1.0000    0     1.008   23.923491   21.333024   17.862293
   6 H     1.0000    0     1.008   19.257172   22.641915   16.683100
   7 H     1.0000    0     1.008   19.227771   16.321029   22.321818
   8 H     1.0000    0     1.008   23.906498   17.617296   21.176473

--------------------------------
INTERNAL COORDINATES (ANGSTROEM)
--------------------------------
 C      0   0   0     0.000000000000     0.00000000     0.00000000
 C      1   0   0     1.420413342990     0.00000000     0.00000000
 S      2   1   0     1.665094619537   113.17844197     0.00000000
 C      3   2   1     1.665077769664    91.52307865     0.00000000
 C      1   2   3     1.365225796248   111.05331796     0.00000000
 H      1   2   3     1.080836712846   122.97815636   180.00211243
 H      2   1   3     1.083064646347   125.60615027   179.99929700
 H      4   3   2     1.083066409231   121.17935260   180.01998473
 H      5   1   2     1.080845091354   125.96318041   179.97455372

---------------------------
INTERNAL COORDINATES (A.U.)
---------------------------
 C      0   0   0     0.000000000000     0.00000000     0.00000000
 C      1   0   0     2.684192215219     0.00000000     0.00000000
 S      2   1   0     3.146572817991   113.17844197     0.00000000
 C      3   2   1     3.146540976345    91.52307865     0.00000000
 C      1   2   3     2.579902865873   111.05331796     0.00000000
 H      1   2   3     2.042485382768   122.97815636   180.00211243
 H      2   1   3     2.046695566929   125.60615027   179.99929700
 H      4   3   2     2.046698898296   121.17935260   180.01998473
 H      5   1   2     2.042501215853   125.96318041   179.97455372

---------------------
BASIS SET INFORMATION
---------------------
There are 3 groups of distinct atoms

 Group   1 Type C   : 18s5p2d1f contracted to 4s3p2d1f pattern {8811/311/11/1}
 Group   2 Type S   : 41s16p2d1f contracted to 5s4p2d1f pattern {13131311/7711/11/1}
 Group   3 Type H   : 5s2p1d contracted to 3s2p1d pattern {311/11/1}

Atom   0C    basis set group =>   1
Atom   1C    basis set group =>   1
Atom   2S    basis set group =>   2
Atom   3C    basis set group =>   1
Atom   4C    basis set group =>   1
Atom   5H    basis set group =>   3
Atom   6H    basis set group =>   3
Atom   7H    basis set group =>   3
Atom   8H    basis set group =>   3
-------------------------------
AUXILIARY BASIS SET INFORMATION
-------------------------------
There are 3 groups of distinct atoms

 Group   1 Type C   : 12s5p4d2f1g contracted to 6s4p3d1f1g pattern {711111/2111/211/2/1}
 Group   2 Type S   : 14s5p5d2f1g contracted to 8s4p3d1f1g pattern {71111111/2111/311/2/1}
 Group   3 Type H   : 5s2p1d contracted to 3s1p1d pattern {311/2/1}

Atom   0C    basis set group =>   1
Atom   1C    basis set group =>   1
Atom   2S    basis set group =>   2
Atom   3C    basis set group =>   1
Atom   4C    basis set group =>   1
Atom   5H    basis set group =>   3
Atom   6H    basis set group =>   3
Atom   7H    basis set group =>   3
Atom   8H    basis set group =>   3


           ************************************************************
           *        Program running with 4 parallel MPI-processes     *
           *              working on a common directory               *
           ************************************************************
------------------------------------------------------------------------------
                           ORCA GTO INTEGRAL CALCULATION
                           -- RI-GTO INTEGRALS CHOSEN --
------------------------------------------------------------------------------

                         BASIS SET STATISTICS AND STARTUP INFO

Gaussian basis set:
 # of primitive gaussian shells          ...  196
 # of primitive gaussian functions       ...  370
 # of contracted shells                  ...   76
 # of contracted basis functions         ...  210
 Highest angular momentum                ...    3
 Maximum contraction depth               ...   13
Auxiliary gaussian basis set:
 # of primitive gaussian shells          ...  155
 # of primitive gaussian functions       ...  421
 # of contracted shells                  ...   97
 # of contracted aux-basis functions     ...  291
 Highest angular momentum                ...    4
 Maximum contraction depth               ...    7
Ratio of auxiliary to basis functions    ...  1.39
Integral package used                  ... LIBINT
 One Electron integrals                  ... done
 Ordering auxiliary basis shells         ... done
 Integral threshhold             Thresh  ...  1.000e-10
 Primitive cut-off               TCut    ...  1.000e-11
 Pre-screening matrix                    ... done
 Shell pair data                         ... 
 Ordering of the shell pairs             ... done (   0.000 sec) 2899 of 2926 pairs
 Determination of significant pairs      ... done (   0.000 sec)
 Creation of shell pair data             ... done (   0.001 sec)
 Storage of shell pair data              ... done (   0.001 sec)
 Shell pair data done in (   0.002 sec)
 Computing two index integrals           ... done
 Cholesky decomposition of the V-matrix  ... done


Timings:
 Total evaluation time                   ...   0.276 sec (  0.005 min)
 One electron matrix time                ...   0.034 sec (  0.001 min) = 12.2%
 Schwartz matrix evaluation time         ...   0.211 sec (  0.004 min) = 76.6%
 Two index repulsion integral time       ...   0.013 sec (  0.000 min) =  4.6%
 Cholesky decomposition of V             ...   0.001 sec (  0.000 min) =  0.4%
 Three index repulsion integral time     ...   0.000 sec (  0.000 min) =  0.0%



           ************************************************************
           *        Program running with 4 parallel MPI-processes     *
           *              working on a common directory               *
           ************************************************************
-------------------------------------------------------------------------------
                                 ORCA SCF
-------------------------------------------------------------------------------

------------
SCF SETTINGS
------------
Hamiltonian:
 Density Functional     Method          .... DFT(GTOs)
 Exchange Functional    Exchange        .... PBE
   PBE kappa parameter   XKappa         ....  0.804000
   PBE mue parameter    XMuePBE         ....  0.219520
 Correlation Functional Correlation     .... PBE
   PBE beta parameter  CBetaPBE         ....  0.066725
 LDA part of GGA corr.  LDAOpt          .... PW91-LDA
 Gradients option       PostSCFGGA      .... off
 Hybrid DFT is turned on
   Fraction HF Exchange ScalHFX         ....  0.250000
   Scaling of DF-GGA-X  ScalDFX         ....  0.750000
   Scaling of DF-GGA-C  ScalDFC         ....  1.000000
   Scaling of DF-LDA-C  ScalLDAC        ....  1.000000
   Perturbative correction              ....  0.000000
   NL short-range parameter             ....  6.900000
 RI-approximation to the Coulomb term is turned on
   Number of auxiliary basis functions  .... 291
   RI-JK (J+K treated both via RI)      .... on


General Settings:
 Integral files         IntName         .... system
 Hartree-Fock type      HFTyp           .... UHF
 Total Charge           Charge          ....    1
 Multiplicity           Mult            ....    2
 Number of Electrons    NEL             ....   43
 Basis Dimension        Dim             ....  210
 Nuclear Repulsion      ENuc            ....    204.4698146788 Eh

Convergence Acceleration:
 DIIS                   CNVDIIS         .... on
   Start iteration      DIISMaxIt       ....    12
   Startup error        DIISStart       ....  0.200000
   # of expansion vecs  DIISMaxEq       ....     5
   Bias factor          DIISBfac        ....   1.050
   Max. coefficient     DIISMaxC        ....  10.000
 Newton-Raphson         CNVNR           .... off
 SOSCF                  CNVSOSCF        .... off
 Level Shifting         CNVShift        .... on
   Level shift para.    LevelShift      ....    0.2500
   Turn off err/grad.   ShiftErr        ....    0.0010
 Zerner damping         CNVZerner       .... off
 Static damping         CNVDamp         .... on
   Fraction old density DampFac         ....    0.7000
   Max. Damping (<1)    DampMax         ....    0.9800
   Min. Damping (>=0)   DampMin         ....    0.0000
   Turn off err/grad.   DampErr         ....    0.1000
 Fernandez-Rico         CNVRico         .... off

SCF Procedure:
 Maximum # iterations   MaxIter         ....   125
 SCF integral mode      SCFMode         .... Direct
   Integral package                     .... LIBINT
 Reset frequeny         DirectResetFreq ....    20
 Integral Threshold     Thresh          ....  1.000e-10 Eh
 Primitive CutOff       TCut            ....  1.000e-11 Eh

Convergence Tolerance:
 Convergence Check Mode ConvCheckMode   .... Total+1el-Energy
 Convergence forced     ConvForced      .... 0
 Energy Change          TolE            ....  1.000e-06 Eh
 1-El. energy change                    ....  1.000e-03 Eh
 DIIS Error             TolErr          ....  1.000e-06


Diagonalization of the overlap matrix:
Smallest eigenvalue                        ... 1.690e-04
Time for diagonalization                   ...    0.007 sec
Threshold for overlap eigenvalues          ... 1.000e-08
Number of eigenvalues below threshold      ... 0
Time for construction of square roots      ...    0.002 sec
Total time needed                          ...    0.009 sec

-------------------
DFT GRID GENERATION
-------------------

General Integration Accuracy     IntAcc      ...  4.340
Radial Grid Type                 RadialGrid  ... Gauss-Chebyshev
Angular Grid (max. acc.)         AngularGrid ... Lebedev-110
Angular grid pruning method      GridPruning ... 3 (G Style)
Weight generation scheme         WeightScheme... Becke
Basis function cutoff            BFCut       ...    1.0000e-10
Integration weight cutoff        WCut        ...    1.0000e-14
Grids for H and He will be reduced by one unit

# of grid points (after initial pruning)     ...  11606 (   0.0 sec)
# of grid points (after weights+screening)   ...  11085 (   0.0 sec)
nearest neighbour list constructed           ...    0.0 sec
Grid point re-assignment to atoms done       ...    0.0 sec
Grid point division into batches done        ...    0.0 sec
Reduced shell lists constructed in    0.0 sec

Total number of grid points                  ...    11085
Total number of batches                      ...      177
Average number of points per batch           ...       62
Average number of grid points per atom       ...     1232
Average number of shells per batch           ...    66.09 (86.96%)
Average number of basis functions per batch  ...   181.43 (86.40%)
Average number of large shells per batch     ...    57.93 (87.66%)
Average number of large basis fcns per batch ...   160.37 (88.39%)
Average number of aux-shells per batch       ...    66.09 (68.13%)
Average number of aux functions per batch    ...   181.43 (62.35%)
Maximum spatial batch extension              ...  17.85, 25.22, 25.22 au
Average spatial batch extension              ...   0.76,  1.02,  1.02 au

Time for grid setup =    0.057 sec

------------------------------
INITIAL GUESS: MODEL POTENTIAL
------------------------------
Loading Hartree-Fock densities                     ... done
Calculating cut-offs                               ... done
Setting up the integral package                    ... done
Initializing the effective Hamiltonian             ... done
Starting the Coulomb interaction                   ... done (   0.0 sec)
Reading the grid                                   ... done
Mapping shells                                     ... done
Starting the XC term evaluation                    ... done (   0.1 sec)
  promolecular density results
     # of electrons  =     43.995817508
     EX              =    -46.546254630
     EC              =     -1.543014036
     EX+EC           =    -48.089268666
Transforming the Hamiltonian                       ... done (   0.0 sec)
Diagonalizing the Hamiltonian                      ... done (   0.0 sec)
Back transforming the eigenvectors                 ... done (   0.0 sec)
Now organizing SCF variables                       ... done
                      ------------------
                      INITIAL GUESS DONE (   0.2 sec)
                      ------------------
--------------
SCF ITERATIONS
--------------
ITER       Energy         Delta-E        Max-DP      RMS-DP      [F,P]     Damp
  0   -551.8001083976   0.000000000000 0.01990807  0.00030986  0.1029798 0.7000
  1   -551.8165202674  -0.016411869786 0.01794842  0.00027126  0.0603786 0.7000
                               ***Turning on DIIS***
  2   -551.8361617224  -0.019641455088 0.03243509  0.00051367  0.0199746 0.0000
  3   -551.8642563008  -0.028094578337 0.01275598  0.00019713  0.0399671 0.0000
  4   -551.8795243228  -0.015268022018 0.00735751  0.00010181  0.0129200 0.0000
  5   -551.8818224003  -0.002298077500 0.00324154  0.00004380  0.0041851 0.0000
  6   -551.8822047463  -0.000382346046 0.00176449  0.00002127  0.0015084 0.0000
  7   -551.8822824133  -0.000077666924 0.00161870  0.00002313  0.0006574 0.0000
  8   -551.8823146082  -0.000032194925 0.00037075  0.00000574  0.0005242 0.0000
  9   -551.8823182656  -0.000003657375 0.00026648  0.00000332  0.0001431 0.0000
 10   -551.8823192148  -0.000000949234 0.00012039  0.00000133  0.0000421 0.0000
                 **** Energy Check signals convergence ****

               *****************************************************
               *                     SUCCESS                       *
               *           SCF CONVERGED AFTER  11 CYCLES          *
               *****************************************************

Setting up the final grid:

General Integration Accuracy     IntAcc      ...  4.670
Radial Grid Type                 RadialGrid  ... Gauss-Chebyshev
Angular Grid (max. acc.)         AngularGrid ... Lebedev-302
Angular grid pruning method      GridPruning ... 3 (G Style)
Weight generation scheme         WeightScheme... Becke
Basis function cutoff            BFCut       ...    1.0000e-10
Integration weight cutoff        WCut        ...    1.0000e-14
Grids for H and He will be reduced by one unit

# of grid points (after initial pruning)     ...  45270 (   0.0 sec)
# of grid points (after weights+screening)   ...  42853 (   0.0 sec)
nearest neighbour list constructed           ...    0.0 sec
Grid point re-assignment to atoms done       ...    0.0 sec
Grid point division into batches done        ...    0.1 sec
Reduced shell lists constructed in    0.2 sec

Total number of grid points                  ...    42853
Total number of batches                      ...      674
Average number of points per batch           ...       63
Average number of grid points per atom       ...     4761
Average number of shells per batch           ...    63.85 (84.02%)
Average number of basis functions per batch  ...   174.48 (83.08%)
Average number of large shells per batch     ...    52.77 (82.64%)
Average number of large basis fcns per batch ...   145.79 (83.56%)
Maximum spatial batch extension              ...  15.21, 16.96, 17.14 au
Average spatial batch extension              ...   0.51,  0.56,  0.58 au

Final grid set up in    0.2 sec
Final integration                            ... done (   0.4 sec)
Change in XC energy                          ...    -0.000145870
Integrated number of electrons               ...    43.000024684
Previous integrated no of electrons          ...    42.999066993

----------------
TOTAL SCF ENERGY
----------------

Total Energy       :         -551.88246527 Eh          -15017.48535 eV

Components:
Nuclear Repulsion  :          204.46981468 Eh            5563.90652 eV
Electronic Energy  :         -756.35227995 Eh          -20581.39188 eV
One Electron Energy:        -1152.03278904 Eh          -31348.40591 eV
Two Electron Energy:          395.68050909 Eh           10767.01404 eV

Virial components:
Potential Energy   :        -1101.77435696 Eh          -29980.80445 eV
Kinetic Energy     :          549.89189169 Eh           14963.31909 eV
Virial Ratio       :            2.00361994


DFT components:
N(Alpha)           :       22.000009540714 electrons
N(Beta)            :       21.000015143000 electrons
N(Total)           :       43.000024683714 electrons
E(X)               :      -35.013289243533 Eh       
E(C)               :       -1.509378658880 Eh       
E(XC)              :      -36.522667902414 Eh       

---------------
SCF CONVERGENCE
---------------

  Last Energy change         ...   -1.8309e-07  Tolerance :   1.0000e-06
  Last MAX-Density change    ...    6.5828e-05  Tolerance :   1.0000e-05
  Last RMS-Density change    ...    7.4723e-07  Tolerance :   1.0000e-06
  Last DIIS Error            ...    1.8386e-05  Tolerance :   1.0000e-06

             **** THE GBW FILE WAS UPDATED (system.gbw) ****
             **** DENSITY FILE WAS UPDATED (system.scfp.tmp) ****
             **** ENERGY FILE WAS UPDATED (system.en.tmp) ****
----------------------
UHF SPIN CONTAMINATION
----------------------

Warning: in a DFT calculation there is little theoretical justification to 
         calculate <S**2> as in Hartree-Fock theory. We will do it anyways
         but you should keep in mind that the values have only limited relevance

Expectation value of <S**2>     :     0.769556
Ideal value S*(S+1) for S=0.5   :     0.750000
Deviation                       :     0.019556

----------------
ORBITAL ENERGIES
----------------
                 SPIN UP ORBITALS
  NO   OCC          E(Eh)            E(eV) 
   0   1.0000     -89.328658     -2430.7564 
   1   1.0000     -10.526208      -286.4327 
   2   1.0000     -10.526187      -286.4321 
   3   1.0000     -10.473420      -284.9963 
   4   1.0000     -10.472680      -284.9761 
   5   1.0000      -8.208536      -223.3656 
   6   1.0000      -6.126525      -166.7112 
   7   1.0000      -6.122240      -166.5946 
   8   1.0000      -6.109461      -166.2469 
   9   1.0000      -1.170767       -31.8582 
  10   1.0000      -1.008657       -27.4469 
  11   1.0000      -0.995445       -27.0874 
  12   1.0000      -0.822240       -22.3743 
  13   1.0000      -0.811368       -22.0785 
  14   1.0000      -0.765656       -20.8346 
  15   1.0000      -0.658036       -17.9061 
  16   1.0000      -0.656260       -17.8577 
  17   1.0000      -0.644225       -17.5303 
  18   1.0000      -0.635501       -17.2929 
  19   1.0000      -0.595951       -16.2166 
  20   1.0000      -0.515595       -14.0301 
  21   1.0000      -0.502239       -13.6666 
  22   0.0000      -0.267687        -7.2841 
  23   0.0000      -0.180077        -4.9002 
  24   0.0000      -0.176889        -4.8134 
  25   0.0000      -0.117936        -3.2092 
  26   0.0000      -0.098950        -2.6926 
  27   0.0000      -0.075531        -2.0553 
  28   0.0000      -0.063665        -1.7324 
  29   0.0000      -0.043554        -1.1852 
  30   0.0000      -0.014813        -0.4031 
  31   0.0000       0.007523         0.2047 
  32   0.0000       0.040352         1.0980 
  33   0.0000       0.060982         1.6594 
  34   0.0000       0.088547         2.4095 
  35   0.0000       0.091695         2.4952 
  36   0.0000       0.116544         3.1713 
  37   0.0000       0.119934         3.2636 
  38   0.0000       0.128899         3.5075 
  39   0.0000       0.135886         3.6976 
  40   0.0000       0.162225         4.4144 
  41   0.0000       0.165935         4.5153 
  42   0.0000       0.170600         4.6423 
  43   0.0000       0.181552         4.9403 
  44   0.0000       0.192748         5.2449 
  45   0.0000       0.213582         5.8119 
  46   0.0000       0.248197         6.7538 
  47   0.0000       0.252059         6.8589 
  48   0.0000       0.274247         7.4626 
  49   0.0000       0.275885         7.5072 
  50   0.0000       0.302994         8.2449 
  51   0.0000       0.317166         8.6305 
  52   0.0000       0.339621         9.2415 
  53   0.0000       0.368372        10.0239 
  54   0.0000       0.401139        10.9156 
  55   0.0000       0.406759        11.0685 
  56   0.0000       0.430407        11.7120 
  57   0.0000       0.472258        12.8508 
  58   0.0000       0.475690        12.9442 
  59   0.0000       0.497033        13.5250 
  60   0.0000       0.503727        13.7071 
  61   0.0000       0.595029        16.1916 
  62   0.0000       0.602823        16.4037 
  63   0.0000       0.605601        16.4793 
  64   0.0000       0.646820        17.6009 
  65   0.0000       0.667830        18.1726 
  66   0.0000       0.707193        19.2437 
  67   0.0000       0.737680        20.0733 
  68   0.0000       0.752282        20.4706 
  69   0.0000       0.769930        20.9509 
  70   0.0000       0.794759        21.6265 
  71   0.0000       0.822425        22.3793 
  72   0.0000       0.851256        23.1639 
  73   0.0000       0.854876        23.2624 
  74   0.0000       0.881127        23.9767 
  75   0.0000       0.923636        25.1334 
  76   0.0000       0.979797        26.6616 
  77   0.0000       0.997075        27.1318 
  78   0.0000       1.009470        27.4691 
  79   0.0000       1.028269        27.9806 
  80   0.0000       1.045373        28.4460 
  81   0.0000       1.065082        28.9824 
  82   0.0000       1.071645        29.1609 
  83   0.0000       1.098568        29.8935 
  84   0.0000       1.123146        30.5624 
  85   0.0000       1.185727        32.2653 
  86   0.0000       1.199788        32.6479 
  87   0.0000       1.205269        32.7970 
  88   0.0000       1.231316        33.5058 
  89   0.0000       1.287251        35.0279 
  90   0.0000       1.352651        36.8075 
  91   0.0000       1.353441        36.8290 
  92   0.0000       1.362840        37.0848 
  93   0.0000       1.377173        37.4748 
  94   0.0000       1.397466        38.0270 
  95   0.0000       1.466519        39.9060 
  96   0.0000       1.535019        41.7700 
  97   0.0000       1.578519        42.9537 
  98   0.0000       1.630606        44.3710 
  99   0.0000       1.657295        45.0973 
 100   0.0000       1.717441        46.7340 
 101   0.0000       1.719445        46.7885 
 102   0.0000       1.726301        46.9750 
 103   0.0000       1.740312        47.3563 
 104   0.0000       1.764206        48.0065 
 105   0.0000       1.825782        49.6821 
 106   0.0000       1.873719        50.9865 
 107   0.0000       1.899426        51.6860 
 108   0.0000       1.963481        53.4290 
 109   0.0000       1.996226        54.3201 
 110   0.0000       2.002865        54.5007 
 111   0.0000       2.031687        55.2850 
 112   0.0000       2.032037        55.2945 
 113   0.0000       2.150307        58.5128 
 114   0.0000       2.164689        58.9042 
 115   0.0000       2.215418        60.2846 
 116   0.0000       2.221774        60.4575 
 117   0.0000       2.233859        60.7864 
 118   0.0000       2.299399        62.5698 
 119   0.0000       2.324033        63.2401 
 120   0.0000       2.389922        65.0331 
 121   0.0000       2.423412        65.9444 
 122   0.0000       2.440873        66.4195 
 123   0.0000       2.471924        67.2645 
 124   0.0000       2.503354        68.1197 
 125   0.0000       2.559391        69.6446 
 126   0.0000       2.574133        70.0457 
 127   0.0000       2.593252        70.5660 
 128   0.0000       2.640800        71.8598 
 129   0.0000       2.652792        72.1861 
 130   0.0000       2.681048        72.9550 
 131   0.0000       2.718549        73.9755 
 132   0.0000       2.722947        74.0951 
 133   0.0000       2.735247        74.4299 
 134   0.0000       2.744380        74.6784 
 135   0.0000       2.796463        76.0956 
 136   0.0000       2.815977        76.6266 
 137   0.0000       2.840015        77.2807 
 138   0.0000       2.865916        77.9855 
 139   0.0000       2.879642        78.3590 
 140   0.0000       2.907816        79.1257 
 141   0.0000       2.912548        79.2545 
 142   0.0000       2.920720        79.4768 
 143   0.0000       2.933956        79.8370 
 144   0.0000       2.988124        81.3110 
 145   0.0000       2.998636        81.5970 
 146   0.0000       2.999354        81.6166 
 147   0.0000       3.010476        81.9192 
 148   0.0000       3.103151        84.4410 
 149   0.0000       3.130914        85.1965 
 150   0.0000       3.134288        85.2883 
 151   0.0000       3.156835        85.9019 
 152   0.0000       3.193843        86.9089 
 153   0.0000       3.222808        87.6971 
 154   0.0000       3.244516        88.2878 
 155   0.0000       3.246927        88.3534 
 156   0.0000       3.327210        90.5380 
 157   0.0000       3.360945        91.4560 
 158   0.0000       3.376494        91.8791 
 159   0.0000       3.447521        93.8118 
 160   0.0000       3.450771        93.9003 
 161   0.0000       3.461863        94.2021 
 162   0.0000       3.480106        94.6985 
 163   0.0000       3.530497        96.0697 
 164   0.0000       3.552161        96.6592 
 165   0.0000       3.597782        97.9006 
 166   0.0000       3.615301        98.3773 
 167   0.0000       3.650030        99.3224 
 168   0.0000       3.694688       100.5376 
 169   0.0000       3.711116       100.9846 
 170   0.0000       3.718987       101.1988 
 171   0.0000       3.728933       101.4694 
 172   0.0000       3.806624       103.5835 
 173   0.0000       3.820154       103.9517 
 174   0.0000       3.864280       105.1524 
 175   0.0000       3.945837       107.3717 
 176   0.0000       3.995723       108.7291 
 177   0.0000       4.001956       108.8988 
 178   0.0000       4.002048       108.9013 
 179   0.0000       4.089731       111.2872 
 180   0.0000       4.090914       111.3194 
 181   0.0000       4.109922       111.8367 
 182   0.0000       4.131539       112.4249 
 183   0.0000       4.250333       115.6574 
 184   0.0000       4.269548       116.1803 
 185   0.0000       4.316973       117.4708 
 186   0.0000       4.350394       118.3802 
 187   0.0000       4.374252       119.0295 
 188   0.0000       4.456336       121.2631 
 189   0.0000       4.584251       124.7438 
 190   0.0000       4.591621       124.9444 
 191   0.0000       4.680861       127.3727 
 192   0.0000       4.730904       128.7345 
 193   0.0000       4.744922       129.1159 
 194   0.0000       4.784339       130.1885 
 195   0.0000       4.829542       131.4185 
 196   0.0000       4.895156       133.2040 
 197   0.0000       5.001735       136.1041 
 198   0.0000       5.108664       139.0138 
 199   0.0000       5.361426       145.8918 
 200   0.0000       5.401332       146.9777 
 201   0.0000       5.458929       148.5450 
 202   0.0000       5.584721       151.9680 
 203   0.0000       5.627100       153.1212 
 204   0.0000       5.915551       160.9703 
 205   0.0000       6.124293       166.6505 
 206   0.0000       9.334764       254.0118 
 207   0.0000      11.138225       303.0865 
 208   0.0000      11.896136       323.7103 
 209   0.0000      13.446947       365.9100 

                 SPIN DOWN ORBITALS
  NO   OCC          E(Eh)            E(eV) 
   0   1.0000     -89.329258     -2430.7727 
   1   1.0000     -10.517850      -286.2053 
   2   1.0000     -10.517839      -286.2050 
   3   1.0000     -10.472795      -284.9792 
   4   1.0000     -10.472039      -284.9587 
   5   1.0000      -8.209153      -223.3824 
   6   1.0000      -6.127192      -166.7294 
   7   1.0000      -6.122832      -166.6107 
   8   1.0000      -6.111276      -166.2963 
   9   1.0000      -1.158531       -31.5252 
  10   1.0000      -1.007092       -27.4044 
  11   1.0000      -0.969723       -26.3875 
  12   1.0000      -0.810959       -22.0673 
  13   1.0000      -0.803865       -21.8743 
  14   1.0000      -0.763506       -20.7760 
  15   1.0000      -0.650231       -17.6937 
  16   1.0000      -0.641860       -17.4659 
  17   1.0000      -0.630949       -17.1690 
  18   1.0000      -0.620669       -16.8893 
  19   1.0000      -0.594819       -16.1858 
  20   1.0000      -0.501318       -13.6416 
  21   0.0000      -0.386541       -10.5183 
  22   0.0000      -0.223834        -6.0908 
  23   0.0000      -0.170952        -4.6518 
  24   0.0000      -0.156301        -4.2532 
  25   0.0000      -0.114902        -3.1266 
  26   0.0000      -0.097396        -2.6503 
  27   0.0000      -0.073288        -1.9943 
  28   0.0000      -0.061106        -1.6628 
  29   0.0000      -0.041774        -1.1367 
  30   0.0000      -0.011843        -0.3223 
  31   0.0000       0.015110         0.4112 
  32   0.0000       0.041663         1.1337 
  33   0.0000       0.067303         1.8314 
  34   0.0000       0.089802         2.4436 
  35   0.0000       0.094591         2.5740 
  36   0.0000       0.122801         3.3416 
  37   0.0000       0.138663         3.7732 
  38   0.0000       0.142229         3.8703 
  39   0.0000       0.147111         4.0031 
  40   0.0000       0.172261         4.6875 
  41   0.0000       0.174277         4.7423 
  42   0.0000       0.181415         4.9365 
  43   0.0000       0.191846         5.2204 
  44   0.0000       0.198754         5.4084 
  45   0.0000       0.228323         6.2130 
  46   0.0000       0.255403         6.9499 
  47   0.0000       0.255679         6.9574 
  48   0.0000       0.277533         7.5520 
  49   0.0000       0.279804         7.6139 
  50   0.0000       0.306705         8.3459 
  51   0.0000       0.321669         8.7531 
  52   0.0000       0.342253         9.3132 
  53   0.0000       0.377409        10.2698 
  54   0.0000       0.402805        10.9609 
  55   0.0000       0.410966        11.1830 
  56   0.0000       0.435902        11.8615 
  57   0.0000       0.478458        13.0195 
  58   0.0000       0.480393        13.0722 
  59   0.0000       0.511159        13.9093 
  60   0.0000       0.511905        13.9296 
  61   0.0000       0.598282        16.2801 
  62   0.0000       0.609048        16.5730 
  63   0.0000       0.609498        16.5853 
  64   0.0000       0.650832        17.7100 
  65   0.0000       0.682930        18.5835 
  66   0.0000       0.718064        19.5395 
  67   0.0000       0.739442        20.1212 
  68   0.0000       0.756911        20.5966 
  69   0.0000       0.771626        20.9970 
  70   0.0000       0.803203        21.8563 
  71   0.0000       0.835228        22.7277 
  72   0.0000       0.852724        23.2038 
  73   0.0000       0.857876        23.3440 
  74   0.0000       0.888142        24.1676 
  75   0.0000       0.936032        25.4707 
  76   0.0000       0.996346        27.1120 
  77   0.0000       0.997870        27.1534 
  78   0.0000       1.017113        27.6771 
  79   0.0000       1.034148        28.1406 
  80   0.0000       1.051397        28.6100 
  81   0.0000       1.066971        29.0337 
  82   0.0000       1.078279        29.3415 
  83   0.0000       1.109747        30.1977 
  84   0.0000       1.127195        30.6725 
  85   0.0000       1.194538        32.5050 
  86   0.0000       1.207151        32.8482 
  87   0.0000       1.208064        32.8731 
  88   0.0000       1.238343        33.6970 
  89   0.0000       1.290370        35.1127 
  90   0.0000       1.352778        36.8110 
  91   0.0000       1.354577        36.8599 
  92   0.0000       1.361733        37.0547 
  93   0.0000       1.385811        37.7098 
  94   0.0000       1.402046        38.1516 
  95   0.0000       1.467136        39.9228 
  96   0.0000       1.537872        41.8476 
  97   0.0000       1.583453        43.0879 
  98   0.0000       1.631556        44.3969 
  99   0.0000       1.659665        45.1618 
 100   0.0000       1.727212        46.9998 
 101   0.0000       1.738082        47.2956 
 102   0.0000       1.738535        47.3080 
 103   0.0000       1.745548        47.4988 
 104   0.0000       1.767924        48.1077 
 105   0.0000       1.830101        49.7996 
 106   0.0000       1.879109        51.1332 
 107   0.0000       1.921789        52.2945 
 108   0.0000       1.965591        53.4864 
 109   0.0000       2.001623        54.4669 
 110   0.0000       2.027684        55.1761 
 111   0.0000       2.040171        55.5159 
 112   0.0000       2.044474        55.6330 
 113   0.0000       2.155320        58.6492 
 114   0.0000       2.186687        59.5028 
 115   0.0000       2.220268        60.4166 
 116   0.0000       2.234170        60.7949 
 117   0.0000       2.246192        61.1220 
 118   0.0000       2.314713        62.9865 
 119   0.0000       2.340577        63.6903 
 120   0.0000       2.406482        65.4837 
 121   0.0000       2.433816        66.2275 
 122   0.0000       2.446603        66.5754 
 123   0.0000       2.482965        67.5649 
 124   0.0000       2.514761        68.4301 
 125   0.0000       2.565989        69.8241 
 126   0.0000       2.594139        70.5901 
 127   0.0000       2.608544        70.9821 
 128   0.0000       2.648710        72.0751 
 129   0.0000       2.667073        72.5748 
 130   0.0000       2.692247        73.2598 
 131   0.0000       2.723592        74.1127 
 132   0.0000       2.733562        74.3840 
 133   0.0000       2.744986        74.6949 
 134   0.0000       2.763199        75.1905 
 135   0.0000       2.812153        76.5226 
 136   0.0000       2.821364        76.7732 
 137   0.0000       2.855843        77.7114 
 138   0.0000       2.871047        78.1252 
 139   0.0000       2.896020        78.8047 
 140   0.0000       2.916388        79.3589 
 141   0.0000       2.927317        79.6563 
 142   0.0000       2.941262        80.0358 
 143   0.0000       2.959430        80.5302 
 144   0.0000       2.994326        81.4798 
 145   0.0000       3.004383        81.7534 
 146   0.0000       3.008985        81.8786 
 147   0.0000       3.024374        82.2974 
 148   0.0000       3.109514        84.6142 
 149   0.0000       3.137920        85.3871 
 150   0.0000       3.145993        85.6068 
 151   0.0000       3.170976        86.2866 
 152   0.0000       3.199768        87.0701 
 153   0.0000       3.229727        87.8853 
 154   0.0000       3.255277        88.5806 
 155   0.0000       3.257633        88.6447 
 156   0.0000       3.342180        90.9454 
 157   0.0000       3.366631        91.6107 
 158   0.0000       3.377758        91.9135 
 159   0.0000       3.454277        93.9957 
 160   0.0000       3.456344        94.0519 
 161   0.0000       3.467362        94.3517 
 162   0.0000       3.490658        94.9856 
 163   0.0000       3.533546        96.1527 
 164   0.0000       3.559327        96.8542 
 165   0.0000       3.605432        98.1088 
 166   0.0000       3.617890        98.4478 
 167   0.0000       3.655782        99.4789 
 168   0.0000       3.699187       100.6600 
 169   0.0000       3.714875       101.0869 
 170   0.0000       3.720464       101.2390 
 171   0.0000       3.735533       101.6490 
 172   0.0000       3.810232       103.6817 
 173   0.0000       3.823365       104.0390 
 174   0.0000       3.864743       105.1650 
 175   0.0000       3.949223       107.4638 
 176   0.0000       3.998762       108.8118 
 177   0.0000       4.003431       108.9389 
 178   0.0000       4.018349       109.3448 
 179   0.0000       4.091608       111.3383 
 180   0.0000       4.093427       111.3878 
 181   0.0000       4.123067       112.1943 
 182   0.0000       4.133600       112.4810 
 183   0.0000       4.251217       115.6815 
 184   0.0000       4.273229       116.2805 
 185   0.0000       4.317547       117.4864 
 186   0.0000       4.351383       118.4072 
 187   0.0000       4.383223       119.2736 
 188   0.0000       4.462718       121.4367 
 189   0.0000       4.592612       124.9713 
 190   0.0000       4.596259       125.0706 
 191   0.0000       4.685380       127.4957 
 192   0.0000       4.740046       128.9832 
 193   0.0000       4.746616       129.1620 
 194   0.0000       4.784918       130.2042 
 195   0.0000       4.830149       131.4350 
 196   0.0000       4.897609       133.2707 
 197   0.0000       5.002832       136.1340 
 198   0.0000       5.114666       139.1771 
 199   0.0000       5.362447       145.9196 
 200   0.0000       5.402975       147.0224 
 201   0.0000       5.460228       148.5804 
 202   0.0000       5.585716       151.9951 
 203   0.0000       5.628212       153.1514 
 204   0.0000       5.916789       161.0040 
 205   0.0000       6.125703       166.6889 
 206   0.0000       9.340977       254.1809 
 207   0.0000      11.149129       303.3832 
 208   0.0000      11.902947       323.8957 
 209   0.0000      13.449778       365.9871 

                    ********************************
                    * MULLIKEN POPULATION ANALYSIS *
                    ********************************

--------------------------------------------
MULLIKEN ATOMIC CHARGES AND SPIN POPULATIONS
--------------------------------------------
   0 C :   -0.052130    0.052976
   1 C :   -0.019597    0.512235
   2 S :    0.323022   -0.097361
   3 C :   -0.019396    0.512202
   4 C :   -0.052232    0.052538
   5 H :    0.193830   -0.002330
   6 H :    0.216447   -0.013967
   7 H :    0.216339   -0.013974
   8 H :    0.193718   -0.002320
Sum of atomic charges         :    1.0000000
Sum of atomic spin populations:    1.0000000

-----------------------------------------------------
MULLIKEN REDUCED ORBITAL CHARGES AND SPIN POPULATIONS
-----------------------------------------------------
CHARGE
  0 C s       :     3.252102  s :     3.252102
      pz      :     0.879380  p :     2.694674
      px      :     0.931008
      py      :     0.884286
      dz2     :     0.016570  d :     0.096525
      dxz     :     0.025462
      dyz     :     0.008088
      dx2y2   :     0.017622
      dxy     :     0.028783
      f0      :     0.000820  f :     0.008828
      f+1     :     0.000907
      f-1     :     0.001350
      f+2     :     0.001276
      f-2     :     0.001634
      f+3     :     0.001691
      f-3     :     0.001151
  1 C s       :     3.244247  s :     3.244247
      pz      :     0.875042  p :     2.659238
      px      :     0.883561
      py      :     0.900636
      dz2     :     0.014908  d :     0.108178
      dxz     :     0.030524
      dyz     :     0.011015
      dx2y2   :     0.021250
      dxy     :     0.030481
      f0      :     0.000596  f :     0.007933
      f+1     :     0.001369
      f-1     :     0.000884
      f+2     :     0.001281
      f-2     :     0.001148
      f+3     :     0.001611
      f-3     :     0.001044
  2 S s       :     5.826379  s :     5.826379
      pz      :     3.221739  p :     9.638504
      px      :     3.259155
      py      :     3.157610
      dz2     :     0.029707  d :     0.191773
      dxz     :     0.049297
      dyz     :     0.026766
      dx2y2   :     0.031056
      dxy     :     0.054946
      f0      :     0.001940  f :     0.020322
      f+1     :     0.002925
      f-1     :     0.001734
      f+2     :     0.002920
      f-2     :     0.003869
      f+3     :     0.003201
      f-3     :     0.003733
  3 C s       :     3.243958  s :     3.243958
      pz      :     0.874417  p :     2.659394
      px      :     0.884434
      py      :     0.900543
      dz2     :     0.014878  d :     0.108112
      dxz     :     0.030655
      dyz     :     0.010937
      dx2y2   :     0.021063
      dxy     :     0.030579
      f0      :     0.000603  f :     0.007931
      f+1     :     0.001357
      f-1     :     0.000887
      f+2     :     0.001290
      f-2     :     0.001142
      f+3     :     0.001603
      f-3     :     0.001050
  4 C s       :     3.252145  s :     3.252145
      pz      :     0.880026  p :     2.694759
      px      :     0.930129
      py      :     0.884604
      dz2     :     0.016501  d :     0.096500
      dxz     :     0.025530
      dyz     :     0.008086
      dx2y2   :     0.017568
      dxy     :     0.028813
      f0      :     0.000825  f :     0.008829
      f+1     :     0.000900
      f-1     :     0.001350
      f+2     :     0.001279
      f-2     :     0.001627
      f+3     :     0.001691
      f-3     :     0.001156
  5 H s       :     0.770722  s :     0.770722
      pz      :     0.009923  p :     0.033148
      px      :     0.013426
      py      :     0.009799
      dz2     :     0.000378  d :     0.002300
      dxz     :     0.000430
      dyz     :     0.000295
      dx2y2   :     0.000760
      dxy     :     0.000438
  6 H s       :     0.745445  s :     0.745445
      pz      :     0.013146  p :     0.035778
      px      :     0.008827
      py      :     0.013806
      dz2     :     0.000478  d :     0.002330
      dxz     :     0.000430
      dyz     :     0.000464
      dx2y2   :     0.000435
      dxy     :     0.000523
  7 H s       :     0.745525  s :     0.745525
      pz      :     0.013152  p :     0.035806
      px      :     0.008832
      py      :     0.013821
      dz2     :     0.000478  d :     0.002331
      dxz     :     0.000426
      dyz     :     0.000466
      dx2y2   :     0.000441
      dxy     :     0.000520
  8 H s       :     0.770817  s :     0.770817
      pz      :     0.009954  p :     0.033164
      px      :     0.013393
      py      :     0.009817
      dz2     :     0.000382  d :     0.002301
      dxz     :     0.000426
      dyz     :     0.000299
      dx2y2   :     0.000760
      dxy     :     0.000434

SPIN
  0 C s       :     0.003954  s :     0.003954
      pz      :     0.026030  p :     0.038918
      px      :    -0.006861
      py      :     0.019750
      dz2     :     0.003036  d :     0.009463
      dxz     :     0.003205
      dyz     :    -0.000222
      dx2y2   :     0.000884
      dxy     :     0.002561
      f0      :     0.000097  f :     0.000640
      f+1     :     0.000148
      f-1     :    -0.000073
      f+2     :     0.000144
      f-2     :    -0.000010
      f+3     :     0.000096
      f-3     :     0.000239
  1 C s       :     0.018625  s :     0.018625
      pz      :     0.266027  p :     0.493639
      px      :     0.011560
      py      :     0.216053
      dz2     :    -0.000855  d :     0.000961
      dxz     :     0.001900
      dyz     :    -0.001783
      dx2y2   :     0.000090
      dxy     :     0.001610
      f0      :    -0.000168  f :    -0.000991
      f+1     :    -0.000058
      f-1     :    -0.000292
      f+2     :    -0.000158
      f-2     :    -0.000250
      f+3     :    -0.000077
      f-3     :     0.000012
  2 S s       :    -0.003922  s :    -0.003922
      pz      :    -0.061377  p :    -0.128767
      px      :    -0.014202
      py      :    -0.053188
      dz2     :     0.022784  d :     0.031395
      dxz     :     0.000619
      dyz     :     0.000070
      dx2y2   :     0.007307
      dxy     :     0.000615
      f0      :     0.000004  f :     0.003933
      f+1     :     0.002084
      f-1     :     0.000231
      f+2     :     0.000137
      f-2     :     0.000175
      f+3     :     0.001266
      f-3     :     0.000036
  3 C s       :     0.018620  s :     0.018620
      pz      :     0.266223  p :     0.493615
      px      :     0.011550
      py      :     0.215842
      dz2     :    -0.000858  d :     0.000957
      dxz     :     0.001902
      dyz     :    -0.001779
      dx2y2   :     0.000083
      dxy     :     0.001609
      f0      :    -0.000167  f :    -0.000991
      f+1     :    -0.000060
      f-1     :    -0.000291
      f+2     :    -0.000157
      f-2     :    -0.000250
      f+3     :    -0.000078
      f-3     :     0.000012
  4 C s       :     0.003933  s :     0.003933
      pz      :     0.025830  p :     0.038481
      px      :    -0.006922
      py      :     0.019573
      dz2     :     0.002959  d :     0.009481
      dxz     :     0.003268
      dyz     :    -0.000218
      dx2y2   :     0.000899
      dxy     :     0.002572
      f0      :     0.000103  f :     0.000643
      f+1     :     0.000139
      f-1     :    -0.000073
      f+2     :     0.000145
      f-2     :    -0.000009
      f+3     :     0.000096
      f-3     :     0.000241
  5 H s       :    -0.002759  s :    -0.002759
      pz      :     0.000282  p :     0.000374
      px      :    -0.000154
      py      :     0.000246
      dz2     :     0.000001  d :     0.000055
      dxz     :     0.000033
      dyz     :    -0.000000
      dx2y2   :    -0.000008
      dxy     :     0.000030
  6 H s       :    -0.021174  s :    -0.021174
      pz      :     0.003696  p :     0.006667
      px      :    -0.000079
      py      :     0.003049
      dz2     :     0.000311  d :     0.000540
      dxz     :     0.000032
      dyz     :     0.000040
      dx2y2   :     0.000125
      dxy     :     0.000032
  7 H s       :    -0.021175  s :    -0.021175
      pz      :     0.003697  p :     0.006662
      px      :    -0.000073
      py      :     0.003038
      dz2     :     0.000309  d :     0.000539
      dxz     :     0.000034
      dyz     :     0.000040
      dx2y2   :     0.000125
      dxy     :     0.000032
  8 H s       :    -0.002740  s :    -0.002740
      pz      :     0.000279  p :     0.000366
      px      :    -0.000157
      py      :     0.000244
      dz2     :     0.000001  d :     0.000054
      dxz     :     0.000033
      dyz     :    -0.000000
      dx2y2   :    -0.000008
      dxy     :     0.000029


                     *******************************
                     * LOEWDIN POPULATION ANALYSIS *
                     *******************************

-------------------------------------------
LOEWDIN ATOMIC CHARGES AND SPIN POPULATIONS
-------------------------------------------
   0 C :    0.088375    0.086864
   1 C :   -0.003378    0.400245
   2 S :    0.821149   -0.020207
   3 C :   -0.003514    0.400170
   4 C :    0.088154    0.086596
   5 H :    0.009131    0.001795
   6 H :   -0.004533    0.021380
   7 H :   -0.004528    0.021379
   8 H :    0.009146    0.001778

----------------------------------------------------
LOEWDIN REDUCED ORBITAL CHARGES AND SPIN POPULATIONS
----------------------------------------------------
CHARGE
  0 C s       :     2.714408  s :     2.714408
      pz      :     0.876266  p :     2.753857
      px      :     0.974829
      py      :     0.902762
      dz2     :     0.057101  d :     0.397059
      dxz     :     0.090344
      dyz     :     0.053093
      dx2y2   :     0.091270
      dxy     :     0.105251
      f0      :     0.004752  f :     0.046301
      f+1     :     0.005376
      f-1     :     0.004801
      f+2     :     0.006066
      f-2     :     0.008818
      f+3     :     0.009895
      f-3     :     0.006593
  1 C s       :     2.783047  s :     2.783047
      pz      :     0.839158  p :     2.744082
      px      :     1.029760
      py      :     0.875164
      dz2     :     0.048605  d :     0.434827
      dxz     :     0.115957
      dyz     :     0.051128
      dx2y2   :     0.096864
      dxy     :     0.122273
      f0      :     0.003353  f :     0.041422
      f+1     :     0.008178
      f-1     :     0.002515
      f+2     :     0.005303
      f-2     :     0.006343
      f+3     :     0.009160
      f-3     :     0.006571
  2 S s       :     5.277674  s :     5.277674
      pz      :     3.140012  p :     9.497662
      px      :     3.268470
      py      :     3.089180
      dz2     :     0.052344  d :     0.339699
      dxz     :     0.078049
      dyz     :     0.059502
      dx2y2   :     0.059706
      dxy     :     0.090098
      f0      :     0.005233  f :     0.063815
      f+1     :     0.009361
      f-1     :     0.003672
      f+2     :     0.009313
      f-2     :     0.012467
      f+3     :     0.010899
      f-3     :     0.012870
  3 C s       :     2.782996  s :     2.782996
      pz      :     0.838890  p :     2.744152
      px      :     1.030025
      py      :     0.875236
      dz2     :     0.048674  d :     0.434929
      dxz     :     0.116304
      dyz     :     0.050988
      dx2y2   :     0.096360
      dxy     :     0.122602
      f0      :     0.003410  f :     0.041437
      f+1     :     0.008091
      f-1     :     0.002542
      f+2     :     0.005360
      f-2     :     0.006301
      f+3     :     0.009109
      f-3     :     0.006623
  4 C s       :     2.714366  s :     2.714366
      pz      :     0.876422  p :     2.754048
      px      :     0.974729
      py      :     0.902897
      dz2     :     0.056896  d :     0.397117
      dxz     :     0.090493
      dyz     :     0.053059
      dx2y2   :     0.091301
      dxy     :     0.105367
      f0      :     0.004778  f :     0.046315
      f+1     :     0.005333
      f-1     :     0.004813
      f+2     :     0.006094
      f-2     :     0.008775
      f+3     :     0.009894
      f-3     :     0.006630
  5 H s       :     0.807391  s :     0.807391
      pz      :     0.042295  p :     0.155267
      px      :     0.068917
      py      :     0.044055
      dz2     :     0.004059  d :     0.028211
      dxz     :     0.006734
      dyz     :     0.002816
      dx2y2   :     0.007416
      dxy     :     0.007186
  6 H s       :     0.814056  s :     0.814056
      pz      :     0.058728  p :     0.161709
      px      :     0.037482
      py      :     0.065500
      dz2     :     0.005570  d :     0.028768
      dxz     :     0.004206
      dyz     :     0.008721
      dx2y2   :     0.005112
      dxy     :     0.005159
  7 H s       :     0.814050  s :     0.814050
      pz      :     0.058577  p :     0.161709
      px      :     0.037668
      py      :     0.065464
      dz2     :     0.005554  d :     0.028770
      dxz     :     0.004208
      dyz     :     0.008690
      dx2y2   :     0.005136
      dxy     :     0.005182
  8 H s       :     0.807375  s :     0.807375
      pz      :     0.042530  p :     0.155267
      px      :     0.068568
      py      :     0.044170
      dz2     :     0.004091  d :     0.028212
      dxz     :     0.006722
      dyz     :     0.002870
      dx2y2   :     0.007377
      dxy     :     0.007153

SPIN
  0 C s       :     0.000176  s :     0.000176
      pz      :     0.027914  p :     0.045779
      px      :    -0.004225
      py      :     0.022090
      dz2     :     0.012605  d :     0.035915
      dxz     :     0.010123
      dyz     :     0.000327
      dx2y2   :     0.004666
      dxy     :     0.008195
      f0      :     0.001187  f :     0.004994
      f+1     :     0.000908
      f-1     :     0.000173
      f+2     :     0.000633
      f-2     :    -0.000023
      f+3     :     0.000550
      f-3     :     0.001565
  1 C s       :     0.011558  s :     0.011558
      pz      :     0.214594  p :     0.393582
      px      :     0.006672
      py      :     0.172315
      dz2     :    -0.002602  d :    -0.003754
      dxz     :     0.001396
      dyz     :    -0.002057
      dx2y2   :    -0.001456
      dxy     :     0.000964
      f0      :     0.000051  f :    -0.001141
      f+1     :    -0.000117
      f-1     :    -0.000296
      f+2     :    -0.000415
      f-2     :    -0.000253
      f+3     :    -0.000143
      f-3     :     0.000032
  2 S s       :    -0.001106  s :    -0.001106
      pz      :    -0.045548  p :    -0.092530
      px      :    -0.008070
      py      :    -0.038912
      dz2     :     0.039658  d :     0.061003
      dxz     :     0.003653
      dyz     :     0.000806
      dx2y2   :     0.013277
      dxy     :     0.003609
      f0      :     0.000080  f :     0.012426
      f+1     :     0.006536
      f-1     :     0.000497
      f+2     :     0.000454
      f-2     :     0.000559
      f+3     :     0.004033
      f-3     :     0.000267
  3 C s       :     0.011557  s :     0.011557
      pz      :     0.214758  p :     0.393531
      px      :     0.006654
      py      :     0.172119
      dz2     :    -0.002603  d :    -0.003774
      dxz     :     0.001387
      dyz     :    -0.002050
      dx2y2   :    -0.001458
      dxy     :     0.000950
      f0      :     0.000052  f :    -0.001143
      f+1     :    -0.000122
      f-1     :    -0.000297
      f+2     :    -0.000413
      f-2     :    -0.000254
      f+3     :    -0.000144
      f-3     :     0.000033
  4 C s       :     0.000166  s :     0.000166
      pz      :     0.027774  p :     0.045460
      px      :    -0.004259
      py      :     0.021945
      dz2     :     0.012365  d :     0.035967
      dxz     :     0.010313
      dyz     :     0.000341
      dx2y2   :     0.004713
      dxy     :     0.008236
      f0      :     0.001227  f :     0.005003
      f+1     :     0.000856
      f-1     :     0.000177
      f+2     :     0.000641
      f-2     :    -0.000021
      f+3     :     0.000545
      f-3     :     0.001578
  5 H s       :    -0.001600  s :    -0.001600
      pz      :     0.001559  p :     0.002794
      px      :     0.000007
      py      :     0.001228
      dz2     :     0.000059  d :     0.000601
      dxz     :     0.000323
      dyz     :    -0.000021
      dx2y2   :    -0.000020
      dxy     :     0.000260
  6 H s       :    -0.009811  s :    -0.009811
      pz      :     0.013799  p :     0.025707
      px      :     0.000325
      py      :     0.011583
      dz2     :     0.003554  d :     0.005484
      dxz     :     0.000243
      dyz     :     0.000158
      dx2y2   :     0.001297
      dxy     :     0.000232
  7 H s       :    -0.009811  s :    -0.009811
      pz      :     0.013801  p :     0.025706
      px      :     0.000334
      py      :     0.011570
      dz2     :     0.003532  d :     0.005484
      dxz     :     0.000258
      dyz     :     0.000159
      dx2y2   :     0.001299
      dxy     :     0.000236
  8 H s       :    -0.001591  s :    -0.001591
      pz      :     0.001551  p :     0.002772
      px      :     0.000001
      py      :     0.001220
      dz2     :     0.000061  d :     0.000597
      dxz     :     0.000320
      dyz     :    -0.000021
      dx2y2   :    -0.000021
      dxy     :     0.000258


                      *****************************
                      * MAYER POPULATION ANALYSIS *
                      *****************************

  NA   - Mulliken gross atomic population
  ZA   - Total nuclear charge
  QA   - Mulliken gross atomic charge
  VA   - Mayer's total valence
  BVA  - Mayer's bonded valence
  FA   - Mayer's free valence

  ATOM       NA         ZA         QA         VA         BVA        FA
  0 C      6.0521     6.0000    -0.0521     3.8432     3.8374     0.0058
  1 C      6.0196     6.0000    -0.0196     3.8427     3.6282     0.2144
  2 S     15.6770    16.0000     0.3230     2.8147     2.8044     0.0103
  3 C      6.0194     6.0000    -0.0194     3.8428     3.6283     0.2144
  4 C      6.0522     6.0000    -0.0522     3.8437     3.8379     0.0058
  5 H      0.8062     1.0000     0.1938     0.9793     0.9792     0.0000
  6 H      0.7836     1.0000     0.2164     0.9686     0.9681     0.0005
  7 H      0.7837     1.0000     0.2163     0.9687     0.9682     0.0005
  8 H      0.8063     1.0000     0.1937     0.9793     0.9793     0.0000

  Mayer bond orders larger than 0.1
B(  0-C ,  1-C ) :   1.2222 B(  0-C ,  4-C ) :   1.5065 B(  0-C ,  5-H ) :   0.9390 
B(  1-C ,  2-S ) :   1.2848 B(  1-C ,  3-C ) :   0.1088 B(  1-C ,  6-H ) :   0.9320 
B(  2-S ,  3-C ) :   1.2845 B(  3-C ,  4-C ) :   1.2225 B(  3-C ,  7-H ) :   0.9321 
B(  4-C ,  8-H ) :   0.9391 

-------
TIMINGS
-------

Total SCF time: 0 days 0 hours 0 min 7 sec 

Total time                  ....       7.085 sec
Sum of individual times     ....       7.011 sec  ( 99.0%)

Fock matrix formation       ....       6.236 sec  ( 88.0%)
  XC integration            ....       1.858 sec  ( 29.8% of F)
    Basis function eval.    ....       0.244 sec  ( 13.1% of XC)
    Density eval.           ....       0.357 sec  ( 19.2% of XC)
    XC-Functional eval.     ....       0.031 sec  (  1.7% of XC)
    XC-Potential eval.      ....       1.120 sec  ( 60.3% of XC)
Diagonalization             ....       0.228 sec  (  3.2%)
Density matrix formation    ....       0.007 sec  (  0.1%)
Population analysis         ....       0.030 sec  (  0.4%)
Initial guess               ....       0.166 sec  (  2.3%)
Orbital Transformation      ....       0.000 sec  (  0.0%)
Orbital Orthonormalization  ....       0.000 sec  (  0.0%)
DIIS solution               ....       0.057 sec  (  0.8%)
Grid generation             ....       0.287 sec  (  4.0%)

-------------------------   --------------------
FINAL SINGLE POINT ENERGY      -551.882465268246
-------------------------   --------------------


                            ***************************************
                            *     ORCA property calculations      *
                            ***************************************

                                    ---------------------
                                    Active property flags
                                    ---------------------
   (+) Dipole Moment


------------------------------------------------------------------------------
                       ORCA ELECTRIC PROPERTIES CALCULATION
------------------------------------------------------------------------------

Dipole Moment Calculation                       ... on
Quadrupole Moment Calculation                   ... off
Polarizability Calculation                      ... off
GBWName                                         ... system.gbw
Electron density file                           ... system.scfp.tmp
The origin for moment calculation is the CENTER OF MASS  = (19.723103, 19.481035 19.504696)

-------------
DIPOLE MOMENT
-------------
                                X             Y             Z
Electronic contribution:     -3.19376       0.00498      -0.01114
Nuclear contribution   :      3.71810      -0.00544       0.01248
                        -----------------------------------------
Total Dipole Moment    :      0.52435      -0.00047       0.00134
                        -----------------------------------------
Magnitude (a.u.)       :      0.52435
Magnitude (Debye)      :      1.33278


Timings for individual modules:

Sum of individual times         ...        7.502 sec (=   0.125 min)
GTO integral calculation        ...        0.360 sec (=   0.006 min)   4.8 %
SCF iterations                  ...        7.142 sec (=   0.119 min)  95.2 %
                             ****ORCA TERMINATED NORMALLY****
TOTAL RUN TIME: 0 days 0 hours 0 minutes 7 seconds 692 msec
