5
system.log	Energy:  -25436.4189421
C         30.30003        1.27282        5.52126
H         31.23888        1.47792        6.03350
H         30.49001        0.65397        4.64650
H         29.84646        2.21311        5.21081
H         29.62463        0.75218        6.19794
