ITEM: TIMESTEP
0
ITEM: NUMBER OF ATOMS
216
ITEM: BOX BOUNDS pp pp pp
0 18.620600
0 18.620600
0 18.620600
ITEM: ATOMS id type x y z
1 0 1.954941 6.778713 1.918170
2 0 2.024728 2.625807 10.181598
3 0 18.178678 3.889877 6.491552
4 0 5.678828 13.152352 11.978421
5 0 16.148942 15.224084 6.785547
6 0 17.581448 6.008219 8.564228
7 0 11.266224 7.338817 6.902246
8 0 17.809349 5.750828 1.957666
9 0 7.008257 11.327640 10.374922
10 0 8.781554 7.675103 0.074578
11 0 7.152516 9.551685 6.708429
12 0 7.183798 11.780242 18.488975
13 0 3.494191 13.767143 10.483517
14 0 14.767547 15.420299 14.447281
15 0 4.472894 3.871705 14.860018
16 0 15.627565 4.088389 7.792688
17 0 2.654273 17.424291 4.424575
18 0 11.481765 13.449472 16.535681
19 0 2.453287 14.682558 5.186594
20 0 3.132156 10.678027 8.882078
21 0 5.745906 17.842461 14.664871
22 0 5.530844 10.687652 1.769021
23 0 15.399726 1.683509 14.430261
24 0 1.131414 6.728364 5.865824
25 0 0.107216 17.456917 3.144962
26 0 0.251918 15.883912 0.872264
27 0 17.267663 9.350678 6.473935
28 0 16.762646 11.293388 4.378659
29 0 0.807872 8.017023 15.748572
30 0 6.262986 13.880848 7.238303
31 0 13.083722 12.387112 13.842311
32 0 8.274691 0.197592 5.512270
33 0 1.861043 9.481968 13.008819
34 0 15.465769 10.379970 2.065609
35 0 12.228414 18.170263 16.229849
36 0 3.615755 2.218067 18.209340
37 0 14.319637 14.455853 8.974668
38 0 17.054422 18.392993 5.839697
39 0 5.880618 7.236378 2.867027
40 0 12.752861 3.807102 9.562152
41 0 16.127637 16.473864 3.459455
42 0 8.051081 5.962818 14.686012
43 0 14.190564 4.824853 16.676331
44 0 9.417576 8.527351 16.124430
45 0 10.059450 3.924566 11.861175
46 0 10.446666 7.205938 4.270522
47 0 0.769714 7.922329 8.391524
48 0 0.791115 0.098438 15.895924
49 0 8.621992 3.453418 2.282572
50 0 16.749343 5.743845 18.070947
51 0 13.998377 11.557987 4.856184
52 0 5.619869 1.625128 9.826173
53 0 10.023816 14.669473 4.857171
54 0 3.609156 18.088702 9.316211
55 0 17.835301 10.397842 8.947877
56 0 12.025344 15.704098 14.848108
57 0 2.926405 9.143806 2.651302
58 0 14.896721 7.858686 7.475072
59 0 4.740279 12.830494 17.430934
60 0 11.264234 17.880042 1.965988
61 0 2.122788 2.710309 15.434044
62 0 16.221404 13.542043 1.023542
63 0 5.076289 17.860136 2.920203
64 0 14.265919 0.729259 4.578851
65 0 2.650163 18.039854 11.871156
66 0 9.907093 16.824103 8.767583
67 0 3.839564 6.575333 4.697998
68 0 15.123267 2.383593 17.501794
69 0 6.540603 1.383776 0.774982
70 0 7.945906 2.605909 17.368903
71 0 8.704276 15.208448 11.735172
72 0 13.237416 6.037153 14.348603
73 0 8.067571 13.364539 9.052999
74 0 9.407962 4.902222 8.782698
75 0 5.772582 0.873088 4.984489
76 0 13.933641 12.144969 0.404453
77 0 3.031529 0.563432 1.717590
78 0 9.844876 2.668646 4.558840
79 0 10.636467 6.884342 14.386562
80 0 12.284218 15.941266 7.760652
81 0 5.042671 11.213153 6.951564
82 0 12.354308 18.213033 6.267982
83 0 10.353297 5.136726 0.336169
84 0 1.095563 6.000590 13.719188
85 0 5.465277 2.156441 12.294467
86 0 8.543844 4.470771 6.384907
87 0 10.110532 0.718504 7.405707
88 0 14.237080 11.715828 8.187193
89 0 14.302341 6.192016 9.501457
90 0 18.152972 7.763968 3.883909
91 0 4.913776 14.036809 1.633707
92 0 17.460944 12.697542 6.512363
93 0 13.382369 5.456203 0.928643
94 0 5.309432 2.871368 2.828555
95 0 17.267186 12.687539 15.300565
96 0 10.109989 13.353016 13.586974
97 0 16.038267 16.406355 16.942367
98 0 11.503743 12.891076 11.275134
99 0 15.658094 10.986539 10.626163
100 0 9.169738 1.032564 13.494495
101 0 9.787192 11.446028 16.827203
102 0 7.158441 9.971453 4.092223
103 0 4.391326 8.291829 12.623212
104 0 12.512983 3.741952 13.092402
105 0 0.768056 15.770081 13.467752
106 0 3.194780 10.954573 4.481072
107 0 5.388984 5.082735 8.622369
108 0 12.431148 13.544167 4.301546
109 0 13.555206 14.716509 11.674598
110 0 15.027329 6.443877 4.760399
111 0 3.500374 15.396321 12.758939
112 0 4.612389 6.659259 16.033432
113 0 16.439294 7.953279 16.634083
114 0 10.440887 1.264977 17.471020
115 0 4.749051 18.421989 17.739409
116 0 5.877249 8.664918 10.404692
117 0 12.587218 8.751363 9.637651
118 0 11.533788 5.194581 2.840659
119 0 2.684053 1.912671 12.874147
120 0 0.284052 13.184352 12.459776
121 0 7.279246 6.069434 10.353867
122 0 17.553987 9.468163 0.089587
123 0 3.483024 0.371897 6.643496
124 0 16.145377 4.400753 3.667256
125 0 10.287752 7.265168 9.607225
126 0 9.955883 15.813102 17.349136
127 0 18.274221 15.358577 15.983473
128 0 3.548562 8.654878 17.627983
129 0 14.823749 3.176912 1.442758
130 0 12.962944 8.015064 18.556139
131 0 10.717552 13.597043 8.338394
132 0 3.445497 7.906926 9.423231
133 0 3.139143 5.007573 9.927598
134 0 4.693100 4.588429 17.968608
135 0 11.700165 3.765397 16.978834
136 0 11.457212 1.985464 14.704452
137 0 0.111632 12.665821 2.076924
138 0 0.562804 17.428194 9.555229
139 0 4.901644 15.643226 8.863999
140 0 9.359318 7.685757 12.096960
141 0 0.250709 5.411755 11.172989
142 0 1.958458 6.272054 17.767389
143 0 13.938619 9.131797 16.256382
144 0 8.153892 5.831628 3.582313
145 0 16.124144 5.918612 11.544635
146 0 2.316068 15.099712 17.251637
147 0 7.473063 4.337632 12.444118
148 0 9.135377 17.017792 14.878537
149 0 4.288046 5.417217 1.909319
150 0 1.119915 11.364980 14.818019
151 0 12.354102 10.355005 11.757563
152 0 13.587739 8.102924 3.034136
153 0 17.757244 16.820504 11.721001
154 0 12.529316 17.070693 10.707541
155 0 1.142484 12.099466 9.950078
156 0 7.613522 16.733756 18.027140
157 0 9.135876 0.772822 1.185189
158 0 17.661879 2.094787 4.468992
159 0 14.108794 15.533504 5.068347
160 0 1.621115 17.793848 18.401390
161 0 12.970668 9.407986 6.043816
162 0 7.395746 12.874635 14.372563
163 0 6.758971 16.006827 1.795054
164 0 16.193377 17.688805 13.960053
165 0 18.408477 1.210837 9.941091
166 0 2.019800 2.711904 6.927264
167 0 11.980019 15.570558 0.581226
168 0 8.451391 10.300701 14.110722
169 0 9.471675 9.384742 2.727582
170 0 14.918974 16.113159 1.011162
171 0 3.445730 13.048668 15.033230
172 0 15.917696 13.047014 12.654031
173 0 11.278518 10.951588 7.653872
174 0 9.962884 2.426868 9.496351
175 0 6.284059 14.703973 4.603315
176 0 17.647046 3.889756 14.010681
177 0 2.458519 13.272492 2.966876
178 0 1.312273 10.362498 17.257626
179 0 6.896579 1.830336 14.615491
180 0 1.083357 3.547483 17.889213
181 0 13.841506 8.698988 13.624772
182 0 0.553593 1.674111 2.068709
183 0 11.650904 12.915045 1.589931
184 0 6.608270 8.158661 14.329472
185 0 15.037612 18.216639 10.826783
186 0 7.289548 5.596535 17.398567
187 0 14.578809 11.971332 16.110505
188 0 3.064919 17.157286 15.637841
189 0 16.063019 8.658127 12.261281
190 0 12.627360 3.194084 4.621713
191 0 6.135715 6.806560 6.369703
192 0 17.483994 3.167006 16.511470
193 0 17.423139 9.375614 14.578500
194 0 8.740352 13.559547 1.057657
195 0 6.593292 17.705892 8.770206
196 0 14.484462 18.375581 17.938524
197 0 9.021835 9.465173 8.855075
198 0 11.075214 9.792055 0.403522
199 0 18.359278 15.205571 8.463916
200 0 1.775548 12.673717 18.539494
201 0 1.442422 11.993233 6.514585
202 0 6.838328 14.743109 16.322220
203 0 18.107358 1.589166 12.622319
204 0 4.179444 3.953574 5.335255
205 0 16.541209 14.676171 10.525495
206 0 3.755501 5.611088 12.830949
207 0 8.230846 16.138017 6.442526
208 0 14.170509 2.315962 11.369409
209 0 10.135232 18.493236 11.034458
210 0 8.073981 12.710901 3.605555
211 0 6.202286 15.795170 12.847552
212 0 13.665773 0.565595 1.999473
213 0 12.795908 4.807702 6.925677
214 0 15.948468 1.848787 9.333664
215 0 0.414508 10.175620 3.222119
216 0 8.679693 16.825322 3.405716
