[Molden Format]
[Title]
Molden file created by VOTCA-XTP
 
[Atoms] AU
H        1     1     9.992871027717e-01       3.0424588416e-01       1.7685945527e+00
C        2     6     0.000000000000e+00       0.0000000000e+00       0.0000000000e+00
H        3     1     3.875828002619e-01       1.5571342146e+00      -1.2823680559e+00
H        4     1     6.321133431867e-01      -1.7600907858e+00      -8.4962080447e-01
H        5     1    -2.019172218819e+00      -1.0147828559e-01       3.6301636241e-01
[GTO] 
   1 0 
s      2 1.0 
      5.4471780000e+00       1.5628498067e-01
      8.2454700000e-01       9.0469088810e-01
s      1 1.0 
      1.8319200000e-01       1.0000000000e+00
 
   2 0 
s      3 1.0 
      1.7225600000e+02       6.1766907377e-02
      2.5910900000e+01       3.5879404285e-01
      5.5333500000e+00       7.0071308369e-01
s      2 1.0 
      3.6649800000e+00      -3.9589516212e-01
      7.7054500000e-01       1.2158343557e+00
p      2 1.0 
      3.6649800000e+00       2.3645994662e-01
      7.7054500000e-01       8.6061880572e-01
s      1 1.0 
      1.9585700000e-01       1.0000000000e+00
p      1 1.0 
      1.9585700000e-01       1.0000000000e+00
 
   3 0 
s      2 1.0 
      5.4471780000e+00       1.5628498067e-01
      8.2454700000e-01       9.0469088810e-01
s      1 1.0 
      1.8319200000e-01       1.0000000000e+00
 
   4 0 
s      2 1.0 
      5.4471780000e+00       1.5628498067e-01
      8.2454700000e-01       9.0469088810e-01
s      1 1.0 
      1.8319200000e-01       1.0000000000e+00
 
   5 0 
s      2 1.0 
      5.4471780000e+00       1.5628498067e-01
      8.2454700000e-01       9.0469088810e-01
s      1 1.0 
      1.8319200000e-01       1.0000000000e+00
 
[5D] 
[7F] 
[9G] 
[MO]
Sym= 
Ene= -1.014414300000e+01 
Spin= Alpha
Occup= 2    
    1    -9.426200922987e-04
    2     1.560546237068e-02
    3     9.859850951937e-01
    4     1.084835185905e-01
    5     3.132303753736e-04
    6     1.600653329975e-06
    7    -5.985404656739e-06
    8    -8.029650058389e-02
    9    -2.084473722113e-04
   10    -1.005771083762e-06
   11     1.295309594644e-05
   12    -9.262470468217e-04
   13     1.556655041396e-02
   14    -9.322511159482e-04
   15     1.558420319706e-02
   16    -8.725767430326e-04
   17     1.537342767102e-02
Sym= 
Ene= -7.125230000000e-01 
Spin= Alpha
Occup= 2    
    1    -1.263017117940e-01
    2    -2.440122448219e-02
    3     2.118417977860e-01
    4    -2.016045969635e-01
    5    -1.334882851576e-02
    6     9.982662272459e-05
    7    -3.000928740485e-04
    8    -6.250680253769e-01
    9    -2.264202573332e-02
   10    -3.565972537979e-04
   11     1.416401726576e-03
   12    -1.227770062625e-01
   13    -2.008761361803e-02
   14    -1.240960008618e-01
   15    -2.167610237797e-02
   16    -1.112197479322e-01
   17    -8.780436654000e-03
Sym= 
Ene= -4.054810000000e-01 
Spin= Alpha
Occup= 2    
    1     2.605629759081e-01
    2     2.698691691158e-01
    3     2.816259116818e-03
    4    -1.990068326768e-03
    5     7.441204497448e-02
    6     1.196292965269e-01
    7     3.511231623029e-01
    8    -1.786700456746e-02
    9     5.732345667394e-02
   10     8.945976538475e-02
   11     2.632399684666e-01
   12    -8.493184163801e-02
   13    -8.112334012674e-02
   14    -1.659250718348e-01
   15    -1.644018775391e-01
   16    -1.343884592218e-02
   17    -7.288161581211e-03
Sym= 
Ene= -4.032510000000e-01 
Spin= Alpha
Occup= 2    
    1    -4.868607636925e-02
    2    -5.062350959518e-02
    3    -1.901855452494e-03
    4     1.359846356228e-03
    5    -5.161166056982e-02
    6     3.597888783375e-01
    7    -1.116380816737e-01
    8     1.195077107526e-02
    9    -4.080979360884e-02
   10     2.786883122538e-01
   11    -8.661529496578e-02
   12     2.421795487704e-01
   13     2.337282244664e-01
   14    -2.011797488304e-01
   15    -2.005537541131e-01
   16     1.022978829190e-02
   17     6.128152430700e-03
Sym= 
Ene= -3.920860000000e-01 
Spin= Alpha
Occup= 2    
    1     7.004211405609e-02
    2     7.758512138831e-02
    3     1.397731798416e-02
    4    -1.246691190690e-02
    5     3.767438576545e-01
    6     2.670286172854e-02
    7    -8.955224535973e-02
    8    -8.514606179014e-02
    9     3.490734092765e-01
   10     2.410840960054e-02
   11    -8.299742813272e-02
   12     9.537629572504e-02
   13     9.581384992402e-02
   14     8.366040862931e-02
   15     8.648893689697e-02
   16    -2.714350436424e-01
   17    -1.750932854915e-01
Sym= 
Ene= 1.575040000000e-01  
Spin= Alpha
Occup= 0    
    1     2.677005611277e-02
    2     1.199078877317e+00
    3     1.761701064511e-01
    4    -7.536562707911e-02
    5    -1.153687597046e-01
    6     5.105238750669e-03
    7    -1.574277255591e-02
    8    -2.337340250830e+00
    9    -3.904776010944e-01
   10     2.348226465346e-02
   11    -5.821353776861e-02
   12     1.822560939957e-02
   13     9.125891290117e-01
   14     2.259384888841e-02
   15     1.038932588207e+00
   16     3.584148851904e-03
   17     3.825591534657e-01
Sym= 
Ene= 1.967060000000e-01  
Spin= Alpha
Occup= 0    
    1     9.778495361700e-02
    2     1.494337760483e+00
    3    -1.454463268422e-02
    4     8.102320738813e-03
    5    -4.630558362162e-02
    6    -1.293034480187e-01
    7    -3.032291507876e-01
    8     1.901783037849e-01
    9    -1.898715775446e-01
   10    -5.208396507229e-01
   11    -1.222625988876e+00
   12    -2.825690321960e-02
   13    -4.992280791906e-01
   14    -7.354242335616e-02
   15    -1.219528038396e+00
   16    -8.159096517182e-04
   17    -6.626018070226e-02
Sym= 
Ene= 2.026670000000e-01  
Spin= Alpha
Occup= 0    
    1     2.693465950175e-02
    2     3.441936168685e-01
    3    -1.270920245075e-02
    4     7.713767214380e-03
    5    -3.579592645562e-02
    6     3.060968716265e-01
    7    -1.226802380976e-01
    8     1.645971737644e-01
    9    -1.549122651134e-01
   10     1.236170721673e+00
   11    -4.954643203052e-01
   12    -1.064925116822e-01
   13    -1.624568936587e+00
   14     7.721420849546e-02
   15     1.092907663346e+00
   16    -2.285593446309e-03
   17    -6.457466828504e-02
Sym= 
Ene= 2.405380000000e-01  
Spin= Alpha
Occup= 0    
    1    -5.287861281666e-02
    2    -2.480465415859e-01
    3     5.202053392627e-02
    4    -4.266686138909e-02
    5     2.794466974614e-01
    6     1.834991625837e-02
    7    -6.095909958037e-02
    8    -6.590416904532e-01
    9     1.273713184271e+00
   10     7.882932056294e-02
   11    -2.598554731465e-01
   12    -5.773538851838e-02
   13    -3.243080926993e-01
   14    -5.446526657030e-02
   15    -2.834807897109e-01
   16     1.732951212165e-01
   17     1.886551613367e+00
Sym= 
Ene= 7.183970000000e-01  
Spin= Alpha
Occup= 0    
    1     2.320894055100e-01
    2     5.207839176609e-02
    3     8.890487724524e-03
    4     9.032127145863e-03
    5     8.107471047634e-01
    6     4.714400029924e-03
    7    -1.262343182476e-01
    8    -1.061793792280e-01
    9    -1.303209229969e+00
   10    -5.207782636860e-03
   11     1.973247755458e-01
   12     1.866566728181e-01
   13     4.742245144913e-02
   14     2.347755564967e-01
   15     5.386927581186e-02
   16    -5.435747344145e-01
   17    -6.425276916321e-02
Sym= 
Ene= 7.277240000000e-01  
Spin= Alpha
Occup= 0    
    1     8.498014875071e-02
    2     1.136611229672e-02
    3     1.616967568629e-04
    4     7.264208716704e-04
    5    -2.606258398601e-03
    6     7.772817932522e-01
    7    -1.061624441375e-02
    8    -2.649056366342e-03
    9     7.851080226510e-03
   10    -1.328905032802e+00
   11     1.460878624482e-02
   12     4.679382473473e-01
   13     6.569671983200e-02
   14    -5.250979910301e-01
   15    -7.126395166799e-02
   16    -2.489532235562e-02
   17    -4.301178101766e-03
Sym= 
Ene= 7.287460000000e-01  
Spin= Alpha
Occup= 0    
    1     5.741178216243e-01
    2     7.848479546612e-02
    3     1.100749974476e-03
    4    -2.060246055474e-03
    5     1.143463362966e-01
    6     7.120190312220e-03
    7     7.651139878710e-01
    8    -8.218024742472e-03
    9    -1.979038422901e-01
   10    -1.508242697931e-02
   11    -1.313745650880e+00
   12    -3.543054014780e-01
   13    -4.678297982496e-02
   14    -2.289175850545e-01
   15    -2.820372512345e-02
   16     1.791006292559e-02
   17     6.283606669464e-03
Sym= 
Ene= 1.057703000000e+00  
Spin= Alpha
Occup= 0    
    1    -7.996046346199e-01
    2     5.494708055601e-01
    3    -1.196639881933e-01
    4     1.620262742821e-01
    5     2.242215072265e-01
    6    -1.268962673636e-02
    7     4.793855365277e-02
    8     1.427567045155e-01
    9    -2.972967172420e-01
   10     1.443200072043e-02
   11    -5.601596286213e-02
   12    -6.390139800028e-01
   13     2.914476755376e-01
   14    -7.034184200075e-01
   15     3.938009785472e-01
   16    -4.344439625599e-01
   17    -8.082216320696e-02
Sym= 
Ene= 1.081247000000e+00  
Spin= Alpha
Occup= 0    
    1     8.093428463512e-01
    2    -1.330871739539e+00
    3    -1.057306897350e-02
    4     9.560682928883e-03
    5    -1.198426496384e-01
    6    -3.185811370424e-01
    7    -7.362513414698e-01
    8     1.945142035788e-02
    9     1.444474954112e-01
   10     3.903989442285e-01
   11     9.023086081699e-01
   12    -2.873461136570e-01
   13     3.840251989746e-01
   14    -6.920409532932e-01
   15     1.017349745061e+00
   16    -6.435382565992e-02
   17     3.091170579144e-02
Sym= 
Ene= 1.086069000000e+00  
Spin= Alpha
Occup= 0    
    1    -1.862949075255e-01
    2     3.432548270266e-01
    3     8.425857763010e-03
    4    -6.960760546135e-03
    5     9.897804420862e-02
    6    -7.429658377801e-01
    7     2.996707291196e-01
    8    -1.546537674320e-02
    9    -1.190747625182e-01
   10     9.156423777325e-01
   11    -3.693819647708e-01
   12     9.116911760816e-01
   13    -1.376690862679e+00
   14    -5.963916487029e-01
   15     9.865736012251e-01
   16     6.037582801512e-02
   17    -3.643250694713e-02
Sym= 
Ene= 1.116265000000e+00  
Spin= Alpha
Occup= 0    
    1    -1.313075755488e-01
    2     3.829213125830e-01
    3     2.664390092291e-02
    4     2.936780537448e-03
    5     7.247433322118e-01
    6     4.915146660733e-02
    7    -1.588654837298e-01
    8    -8.356860587702e-02
    9    -9.103971454521e-01
   10    -6.225308787641e-02
   11     2.016983330426e-01
   12    -1.896576941434e-01
   13     4.798461793857e-01
   14    -1.574083363644e-01
   15     4.274410322523e-01
   16     1.112848378142e+00
   17    -1.552838664866e+00
Sym= 
Ene= 1.715960000000e+00  
Spin= Alpha
Occup= 0    
    1     1.550815050979e-01
    2     7.636167090171e-01
    3     1.649093122709e-02
    4     1.997377196457e+00
    5    -1.885636508053e-02
    6    -4.364887589456e-04
    7     1.904466562349e-03
    8    -3.947558404034e+00
    9     4.397012425975e-02
   10     7.376875043119e-04
   11    -4.435297157287e-03
   12     1.509353451337e-01
   13     7.733265246218e-01
   14     1.528040831343e-01
   15     7.684423119512e-01
   16     1.352288156945e-01
   17     8.326769084895e-01
