
                                 *****************
                                 * O   R   C   A *
                                 *****************

           --- An Ab Initio, DFT and Semiempirical electronic structure package ---
                         Program Version 4.0.1 -  RELEASE  -
                                       INPUT FILE
================================================================================
NAME = system.inp
|  1> * xyz  0 1
|  2>   H      0.5288      0.1610      0.9359
|  3>   C      0.0000      0.0000      0.0000
|  4>   H      0.2051      0.8240     -0.6786
|  5>   H      0.3345     -0.9314     -0.4496
|  6>   H     -1.0685     -0.0537      0.1921
|  7> * 
|  8> 
|  9> %elprop
| 10> Polar 1
| 11> end
| 12> 
| 13> ! DFT  PBE0 DIRECT 3-21G
| 14> 
| 15> 
| 16>                          ****END OF INPUT****
================================================================================

                       ****************************
                       * Single Point Calculation *
                       ****************************

---------------------------------
CARTESIAN COORDINATES (ANGSTROEM)
---------------------------------
  H      0.528800    0.161000    0.935900
  C      0.000000    0.000000    0.000000
  H      0.205100    0.824000   -0.678600
  H      0.334500   -0.931400   -0.449600
  H     -1.068500   -0.053700    0.192100

----------------------------
CARTESIAN COORDINATES (A.U.)
----------------------------
  NO LB      ZA    FRAG     MASS         X           Y           Z
   0 H     1.0000    0     1.008    0.999287    0.304246    1.768595
   1 C     6.0000    0    12.011    0.000000    0.000000    0.000000
   2 H     1.0000    0     1.008    0.387583    1.557134   -1.282368
   3 H     1.0000    0     1.008    0.632113   -1.760091   -0.849621
   4 H     1.0000    0     1.008   -2.019172   -0.101478    0.363016

--------------------------------
INTERNAL COORDINATES (ANGSTROEM)
--------------------------------
 H      0   0   0     0.000000000000     0.00000000     0.00000000
 C      1   0   0     1.086949515847     0.00000000     0.00000000
 H      2   1   0     1.086986646652   109.47881566     0.00000000
 H      2   1   3     1.086984990697   109.47224096   120.00042779
 H      2   1   3     1.086958301868   109.47426454   239.99847195

---------------------------
INTERNAL COORDINATES (A.U.)
---------------------------
 H      0   0   0     0.000000000000     0.00000000     0.00000000
 C      1   0   0     2.054036906349     0.00000000     0.00000000
 H      2   1   0     2.054107073402   109.47881566     0.00000000
 H      2   1   3     2.054103944100   109.47224096   120.00042779
 H      2   1   3     2.054053509523   109.47426454   239.99847195

--------------
SCF ITERATIONS
--------------
ITER       Energy         Delta-E        Max-DP      RMS-DP      [F,P]     Damp
               ***  Starting incremental Fock matrix formation  ***
  0    -40.1837355351   0.000000000000 0.05608035  0.00815748  0.1902884 0.7000
  1    -40.2097076139  -0.025972078840 0.04863991  0.00639782  0.1011419 0.7000
                               ***Turning on DIIS***
  2    -40.2210178010  -0.011310187117 0.08720142  0.01139762  0.0412892 0.0000
  3    -40.2363206548  -0.015302853728 0.02991000  0.00398732  0.0512358 0.0000
  4    -40.2406497632  -0.004329108457 0.01093372  0.00128308  0.0110634 0.0000
                      *** Initiating the SOSCF procedure ***
                           *** Shutting down DIIS ***
                      *** Re-Reading the Fockian *** 
                      *** Removing any level shift *** 
ITER      Energy       Delta-E        Grad      Rot      Max-DP    RMS-DP
  5    -40.24088185  -0.0002320879  0.000787  0.000787  0.002891  0.000379
               *** Restarting incremental Fock matrix formation ***
  6    -40.24089298  -0.0000111325  0.000283  0.000464  0.000987  0.000180
  7    -40.24089331  -0.0000003233  0.000205  0.000123  0.000298  0.000040
                 **** Energy Check signals convergence ****
              ***Rediagonalizing the Fockian in SOSCF/NRSCF***

               *****************************************************
               *                     SUCCESS                       *
               *           SCF CONVERGED AFTER   8 CYCLES          *
               *****************************************************

-------------------------   --------------------
FINAL SINGLE POINT ENERGY       -40.240792344368
-------------------------   --------------------


                            ***************************************
                            *     ORCA property calculations      *
                            ***************************************

                                    ---------------------
                                    Active property flags
                                    ---------------------
Solving CP-SCF equations                       ... 
------------------------------------------------------------------------------
                           ORCA CP-SCF CALCULATION
------------------------------------------------------------------------------

Input orbitals are from        ... system.gbw
Input Perturbation             ... system.cpv.tmp
Wavefunction output            ... system.cpu.tmp
Perturbation mode              ... Real perturbation
Solver                         ... POPLE
Max. number of iterations      ... 64
Convergence tolerance          ... 1.000e-06
Integral handling              ... Direct
Number of perturbations        ... 3
Number of operators            ... 1
Orbital ranges used for CP-SCF:
 Operator 0:  Orbitals   0...  4  to   5... 16
DFT calculation                         ... on
Exchange functional (SCF)               ... PBE
Exchange functional (CP-SCF)            ... PBE
   PBE kappa parameter  XKappa (SCF)    ...  0.804000
   PBE kappa parameter  XKappa (CP-SCF) ...  0.804000
   PBE mue parameter   XMuePBE (SCF)    ...  0.219520
   PBE mue parameter   XMuePBE (CP-SCF) ...  0.219520
Correlation functional (SCF)            ... PBE
Correlation functional (CP-SCF)         ... PBE
   PBE beta parameter CBetaPBE (SCF)    ...  0.066725
   PBE beta parameter CBetaPBE (CP-SCF) ...  0.066725
 LDA part of GGA corr.  LDAOpt (SCF)    ... PW91-LDA
 LDA part of GGA corr.  LDAOpt (CP-SCF) ... PW91-LDA
Hybrid DFT                              ... on
   Exchange mixing (SCF)                ...  0.250
   Exchange mixing (CP-SCF)             ...  0.250
   GGA exch. scaling(SCF)               ...  0.750
   GGA exch. scaling (CP-SCF)           ...  0.750
   GGA corr. scaling (SCF)              ...  1.000
   GGA corr. scaling (CP-SCF)           ...  1.000
Variables per vector in CP-SCF ... 60
Number of vectors sought       ... 3
Recalculating density on grid  ... done
Calculating the xc-kernel      ... done
     CP-SCF ITERATION   0: 
     CP-SCF ITERATION   1:      0.000113908648
     CP-SCF ITERATION   2:      0.000002896451
     CP-SCF ITERATION   3:      0.000000121393
done
Reading CP-SCF coefficients                    ... done
Doing the polarizability tensor   ... done
Cleaning up                                    ... done

-------------------------
THE POLARIZABILITY TENSOR
-------------------------

The raw cartesian tensor (atomic units):
   11.40196     -0.00423      0.00097  
   -0.00423     11.42894      0.01163  
    0.00097      0.01163     11.41930  
diagonalized tensor: 
   11.40078     11.41245     11.43696  

    0.95653      0.27871      0.08579  
    0.22185     -0.50454     -0.83440  
   -0.18927      0.81717     -0.54444  

Isotropic polarizability :  11.41673


Timings for individual modules:
Solution of CP-SCF eqns.        ...        0.831 sec (=   0.014 min)  27.6 %
                             ****ORCA TERMINATED NORMALLY****
TOTAL RUN TIME: 0 days 0 hours 0 minutes 3 seconds 406 msec
