
                                 *****************
                                 * O   R   C   A *
                                 *****************

           --- An Ab Initio, DFT and Semiempirical electronic structure package ---

                  #######################################################
                  #                        -***-                        #
                  #  Department of molecular theory and spectroscopy    #
                  #              Directorship: Frank Neese              #
                  # Max Planck Institute for Chemical Energy Conversion #
                  #                  D-45470 Muelheim/Ruhr              #
                  #                       Germany                       #
                  #                                                     #
                  #                  All rights reserved                #
                  #                        -***-                        #
                  #######################################################


                         Program Version 4.0.1 -  RELEASE  -


 With contributions from (in alphabetic order):
   Daniel Aravena         : Magnetic Properties
   Michael Atanasov       : Ab Initio Ligand Field Theory
   Ute Becker             : Parallelization
   Martin Brehm           : Molecular dynamics
   Dmytro Bykov           : SCF Hessian
   Vijay G. Chilkuri      : MRCI spin determinant printing
   Dipayan Datta          : RHF DLPNO-CCSD density
   Achintya Kumar Dutta   : EOM-CC, STEOM-CC
   Dmitry Ganyushin       : Spin-Orbit,Spin-Spin,Magnetic field MRCI
   Yang Guo               : DLPNO-NEVPT2, CIM, IAO-localization
   Andreas Hansen         : Spin unrestricted coupled pair/coupled cluster methods
   Lee Huntington         : MR-EOM, pCC
   Robert Izsak           : Overlap fitted RIJCOSX, COSX-SCS-MP3, EOM
   Christian Kollmar      : KDIIS, OOCD, Brueckner-CCSD(T), CCSD density
   Simone Kossmann        : Meta GGA functionals, TD-DFT gradient, OOMP2, MP2 Hessian
   Martin Krupicka        : AUTO-CI
   Dagmar Lenk            : GEPOL surface
   Dimitrios Liakos       : Extrapolation schemes; parallel MDCI
   Dimitrios Manganas     : ROCIS; embedding schemes
   Dimitrios Pantazis     : SARC Basis sets
   Taras Petrenko         : DFT Hessian,TD-DFT gradient, ASA, ECA, R-Raman, ABS, FL, XAS/XES, NRVS
   Peter Pinski           : DLPNO-MP2
   Christoph Reimann      : Effective Core Potentials
   Marius Retegan         : Local ZFS, SOC
   Christoph Riplinger    : Optimizer, TS searches, QM/MM, DLPNO-CCSD(T), (RO)-DLPNO pert. Triples
   Tobias Risthaus        : Range-separated hybrids, TD-DFT gradient, RPA, STAB
   Michael Roemelt        : Restricted open shell CIS
   Masaaki Saitow         : Open-shell DLPNO
   Barbara Sandhoefer     : DKH picture change effects
   Kantharuban Sivalingam : CASSCF convergence, NEVPT2, FIC-MRCI
   Georgi Stoychev        : AutoAux
   Boris Wezisla          : Elementary symmetry handling
   Frank Wennmohs         : Technical directorship


 We gratefully acknowledge several colleagues who have allowed us to
 interface, adapt or use parts of their codes:
   Stefan Grimme, W. Hujo, H. Kruse,             : VdW corrections, initial TS optimization,
                  C. Bannwarth                     DFT functionals, gCP, sTDA/sTD-DF
   Ed Valeev                                     : LibInt (2-el integral package), F12 methods
   Garnet Chan, S. Sharma, J. Yang, R. Olivares  : DMRG
   Ulf Ekstrom                                   : XCFun DFT Library
   Mihaly Kallay                                 : mrcc  (arbitrary order and MRCC methods)
   Andreas Klamt, Michael Diedenhofen            : otool_cosmo (COSMO solvation model)
   Jiri Pittner, Ondrej Demel                    : Mk-CCSD
   Frank Weinhold                                : gennbo (NPA and NBO analysis)
   Christopher J. Cramer and Donald G. Truhlar   : smd solvation model


 Your calculation uses the libint2 library for the computation of 2-el integrals
 For citations please refer to: http://libint.valeyev.net

 This ORCA versions uses:
   CBLAS   interface :  Fast vector & matrix operations
   LAPACKE interface :  Fast linear algebra routines
   SCALAPACK package :  Parallel linear algebra routines


Your calculation utilizes the basis: cc-pVTZ 
       H, B-Ne : Obtained from the ccRepo (grant-hill.group.shef.ac.uk/ccrepo) Feb. 2017
                 T. H. Dunning, Jr., J. Chem. Phys. 90, 1007 (1989)
            He : Obtained from the ccRepo (grant-hill.group.shef.ac.uk/ccrepo) Feb. 2017
                 D. E. Woon, T. H. Dunning, Jr., J. Chem. Phys. 100, 2975 (1994)
  Li-Be, Na-Mg : Obtained from the ccRepo (grant-hill.group.shef.ac.uk/ccrepo) Feb. 2017
                 B. P. Prascher, D. E. Woon, K. A. Peterson, T. H. Dunning, Jr., A. K. Wilson, Theor. Chem. Acc. 128, 69 (2011)
         Al-Ar : Obtained from the ccRepo (grant-hill.group.shef.ac.uk/ccrepo) Feb. 2017
                 D. E. Woon, T. H. Dunning, Jr., J. Chem. Phys. 98, 1358 (1993)
            Ca : Obtained from the Peterson Research Group Website (tyr0.chem.wsu.edu/~kipeters) Feb. 2017
                 J. Koput, K. A. Peterson, J. Phys. Chem. 106, 9595 (2002)
         Sc-Zn : Obtained from the ccRepo (grant-hill.group.shef.ac.uk/ccrepo) Feb. 2017
                 N. B. Balabanov, K. A. Peterson, J. Chem. Phys. 123, 064107 (2005)
                 N. B. Balabanov, K. A. Peterson, J. Chem. Phys. 125, 074110 (2006)
         Ga-Kr : Obtained from the ccRepo (grant-hill.group.shef.ac.uk/ccrepo) Feb. 2017
                 A. K. Wilson, D. E. Woon, K. A. Peterson, T. H. Dunning, Jr., J. Chem. Phys. 110, 7667 (1999)
             Y : Obtained from the ccRepo (grant-hill.group.shef.ac.uk/ccrepo) Feb. 2017
                 K. A. Peterson, D. Figgen, M. Dolg, H. Stoll, J. Chem. Phys. 126, 124101 (2007)
        Ag, Au : Obtained from the Peterson Research Group Website (tyr0.chem.wsu.edu/~kipeters) Feb. 2017
                 K. A. Peterson, C. Puzzarini, Theor. Chem. Acc. 114, 283 (2005)

Your calculation utilizes the auxiliary basis: def2/J
   F. Weigend, Phys. Chem. Chem. Phys. 8, 1057 (2006).

================================================================================
                                        WARNINGS
                       Please study these warnings very carefully!
================================================================================

Warning: TCutStore was < 0. Adjusted to Thresh (uncritical)

WARNING: your system is open-shell and RHF/RKS was chosen
  ===> : WILL SWITCH to UHF/UKS


WARNING: Geometry Optimization
  ===> : Switching off AutoStart
         For restart on a previous wavefunction, please use MOREAD

INFO   : the flag for use of LIBINT has been found!

================================================================================
                                       INPUT FILE
================================================================================
NAME = system.inp
|  1> * xyz  1 2
|  2>   C      11.749001     10.834662      9.855707
|  3>   C      10.480477     11.213691      9.514388
|  4>   S       9.340647     10.309169     10.317908
|  5>   C      10.473986      9.403360     11.129074
|  6>   C      11.745299      9.780424     10.796077
|  7>   H      12.641061     11.290838      9.450909
|  8>   H      10.194209     11.988999      8.821817
|  9>   H      10.181502      8.628585     11.819672
| 10>   H      12.634118      9.322672     11.206148
| 11> * 
| 12> 
| 13> %pal
| 14>  nprocs 4
| 15> end
| 16> 
| 17>  
| 18> 
| 19> ! OPT DFT  PBE0 RIJK cc-pVTZ
| 20> 
| 21> 
| 22>                          ****END OF INPUT****
================================================================================

                       *****************************
                       * Geometry Optimization Run *
                       *****************************

Geometry optimization settings:
Update method            Update   .... BFGS
Choice of coordinates    CoordSys .... Redundant Internals
Initial Hessian          InHess   .... Almoef's Model

Convergence Tolerances:
Energy Change            TolE     ....  5.0000e-06 Eh
Max. Gradient            TolMAXG  ....  3.0000e-04 Eh/bohr
RMS Gradient             TolRMSG  ....  1.0000e-04 Eh/bohr
Max. Displacement        TolMAXD  ....  4.0000e-03 bohr
RMS Displacement         TolRMSD  ....  2.0000e-03 bohr

------------------------------------------------------------------------------
                        ORCA OPTIMIZATION COORDINATE SETUP
------------------------------------------------------------------------------

The optimization will be done in new redundant internal coordinates
Making redundant internal coordinates   ...  (new redundants) done
Evaluating the initial hessian          ...  (Almloef) done
Evaluating the coordinates              ...  done
Calculating the B-matrix                .... done
Calculating the G-matrix                .... done
Diagonalizing the G-matrix              .... done
The first mode is                       ....   17
The number of degrees of freedom        ....   21

    -----------------------------------------------------------------
                    Redundant Internal Coordinates


    -----------------------------------------------------------------
         Definition                    Initial Value    Approx d2E/dq
    -----------------------------------------------------------------
      1. B(C   1,C   0)                  1.3672         0.679311   
      2. B(S   2,C   1)                  1.6622         0.619693   
      3. B(C   3,S   2)                  1.6622         0.619748   
      4. B(C   4,C   3)                  1.3672         0.679323   
      5. B(C   4,C   0)                  1.4127         0.574803   
      6. B(H   5,C   0)                  1.0806         0.372732   
      7. B(H   6,C   1)                  1.0783         0.375931   
      8. B(H   7,C   3)                  1.0783         0.375904   
      9. B(H   8,C   4)                  1.0806         0.372753   
     10. A(C   1,C   0,C   4)          111.7542         0.435292   
     11. A(C   1,C   0,H   5)          123.7362         0.360533   
     12. A(C   4,C   0,H   5)          124.5096         0.350458   
     13. A(S   2,C   1,H   6)          121.3117         0.374168   
     14. A(C   0,C   1,S   2)          111.3883         0.465964   
     15. A(C   0,C   1,H   6)          127.3000         0.361059   
     16. A(C   1,S   2,C   3)           93.7207         0.484136   
     17. A(S   2,C   3,H   7)          121.2750         0.374169   
     18. A(S   2,C   3,C   4)          111.3984         0.465973   
     19. A(C   4,C   3,H   7)          127.3266         0.361056   
     20. A(C   3,C   4,H   8)          123.7501         0.360538   
     21. A(C   0,C   4,H   8)          124.5115         0.350462   
     22. A(C   0,C   4,C   3)          111.7384         0.435293   
     23. D(S   2,C   1,C   0,C   4)     -0.0115         0.032342   
     24. D(H   6,C   1,C   0,H   5)      0.0059         0.032342   
     25. D(H   6,C   1,C   0,C   4)   -179.9866         0.032342   
     26. D(S   2,C   1,C   0,H   5)    179.9810         0.032342   
     27. D(C   3,S   2,C   1,H   6)    179.9895         0.007328   
     28. D(C   3,S   2,C   1,C   0)      0.0127         0.007328   
     29. D(C   4,C   3,S   2,C   1)     -0.0105         0.007329   
     30. D(H   7,C   3,S   2,C   1)    179.9823         0.007329   
     31. D(C   0,C   4,C   3,H   7)   -179.9866         0.032343   
     32. D(C   0,C   4,C   3,S   2)      0.0056         0.032343   
     33. D(H   8,C   4,C   0,H   5)     -0.0166         0.022681   
     34. D(H   8,C   4,C   0,C   1)    179.9758         0.022681   
     35. D(C   3,C   4,C   0,H   5)   -179.9887         0.022681   
     36. D(H   8,C   4,C   3,S   2)   -179.9667         0.032343   
     37. D(C   3,C   4,C   0,C   1)      0.0037         0.022681   
     38. D(H   8,C   4,C   3,H   7)      0.0411         0.032343   
    -----------------------------------------------------------------

Number of atoms                         .... 9
Number of degrees of freedom            .... 38

         *************************************************************
         *                GEOMETRY OPTIMIZATION CYCLE   1            *
         *************************************************************
---------------------------------
CARTESIAN COORDINATES (ANGSTROEM)
---------------------------------
  C     11.749001   10.834662    9.855707
  C     10.480477   11.213691    9.514388
  S      9.340647   10.309169   10.317908
  C     10.473986    9.403360   11.129074
  C     11.745299    9.780424   10.796077
  H     12.641061   11.290838    9.450909
  H     10.194209   11.988999    8.821817
  H     10.181502    8.628585   11.819672
  H     12.634118    9.322672   11.206148

----------------------------
CARTESIAN COORDINATES (A.U.)
----------------------------
  NO LB      ZA    FRAG     MASS         X           Y           Z
   0 C     6.0000    0    12.011   22.202394   20.474544   18.624587
   1 C     6.0000    0    12.011   19.805231   21.190805   17.979588
   2 S    16.0000    0    32.060   17.651265   19.481506   19.498020
   3 C     6.0000    0    12.011   19.792965   17.769775   21.030902
   4 C     6.0000    0    12.011   22.195398   18.482323   20.401629
   5 H     1.0000    0     1.008   23.888143   21.336592   17.859630
   6 H     1.0000    0     1.008   19.264263   22.655925   16.670818
   7 H     1.0000    0     1.008   19.240250   16.305663   22.335943
   8 H     1.0000    0     1.008   23.875023   17.617297   21.176551

--------------------------------
INTERNAL COORDINATES (ANGSTROEM)
--------------------------------
 C      0   0   0     0.000000000000     0.00000000     0.00000000
 C      1   0   0     1.367228869348     0.00000000     0.00000000
 S      2   1   0     1.662232495105   111.38827447     0.00000000
 C      3   2   1     1.662208624980    93.72072202     0.00000000
 C      4   3   2     1.367223831739   111.39842166     0.00000000
 H      1   2   3     1.080615106030   123.73620081   179.98104616
 H      2   1   3     1.078288668553   127.30003635   180.02486511
 H      4   3   2     1.078308299368   121.27501432   179.98226917
 H      5   4   3     1.080599062236   123.75008972   180.03329880

---------------------------
INTERNAL COORDINATES (A.U.)
---------------------------
 C      0   0   0     0.000000000000     0.00000000     0.00000000
 C      1   0   0     2.583688125458     0.00000000     0.00000000
 S      2   1   0     3.141164186654   111.38827447     0.00000000
 C      3   2   1     3.141119078654    93.72072202     0.00000000
 C      4   3   2     2.583678605756   111.39842166     0.00000000
 H      1   2   3     2.042066606575   123.73620081   179.98104616
 H      2   1   3     2.037670276875   127.30003635   180.02486511
 H      4   3   2     2.037707373739   121.27501432   179.98226917
 H      5   4   3     2.042036288199   123.75008972   180.03329880

---------------------
BASIS SET INFORMATION
---------------------
There are 3 groups of distinct atoms

 Group   1 Type C   : 18s5p2d1f contracted to 4s3p2d1f pattern {8811/311/11/1}
 Group   2 Type S   : 41s16p2d1f contracted to 5s4p2d1f pattern {13131311/7711/11/1}
 Group   3 Type H   : 5s2p1d contracted to 3s2p1d pattern {311/11/1}

Atom   0C    basis set group =>   1
Atom   1C    basis set group =>   1
Atom   2S    basis set group =>   2
Atom   3C    basis set group =>   1
Atom   4C    basis set group =>   1
Atom   5H    basis set group =>   3
Atom   6H    basis set group =>   3
Atom   7H    basis set group =>   3
Atom   8H    basis set group =>   3
-------------------------------
AUXILIARY BASIS SET INFORMATION
-------------------------------
There are 3 groups of distinct atoms

 Group   1 Type C   : 12s5p4d2f1g contracted to 6s4p3d1f1g pattern {711111/2111/211/2/1}
 Group   2 Type S   : 14s5p5d2f1g contracted to 8s4p3d1f1g pattern {71111111/2111/311/2/1}
 Group   3 Type H   : 5s2p1d contracted to 3s1p1d pattern {311/2/1}

Atom   0C    basis set group =>   1
Atom   1C    basis set group =>   1
Atom   2S    basis set group =>   2
Atom   3C    basis set group =>   1
Atom   4C    basis set group =>   1
Atom   5H    basis set group =>   3
Atom   6H    basis set group =>   3
Atom   7H    basis set group =>   3
Atom   8H    basis set group =>   3


           ************************************************************
           *        Program running with 4 parallel MPI-processes     *
           *              working on a common directory               *
           ************************************************************
------------------------------------------------------------------------------
                           ORCA GTO INTEGRAL CALCULATION
                           -- RI-GTO INTEGRALS CHOSEN --
------------------------------------------------------------------------------

                         BASIS SET STATISTICS AND STARTUP INFO

Gaussian basis set:
 # of primitive gaussian shells          ...  196
 # of primitive gaussian functions       ...  370
 # of contracted shells                  ...   76
 # of contracted basis functions         ...  210
 Highest angular momentum                ...    3
 Maximum contraction depth               ...   13
Auxiliary gaussian basis set:
 # of primitive gaussian shells          ...  155
 # of primitive gaussian functions       ...  421
 # of contracted shells                  ...   97
 # of contracted aux-basis functions     ...  291
 Highest angular momentum                ...    4
 Maximum contraction depth               ...    7
Ratio of auxiliary to basis functions    ...  1.39
Integral package used                  ... LIBINT
 One Electron integrals                  ... done
 Ordering auxiliary basis shells         ... done
 Integral threshhold             Thresh  ...  2.500e-11
 Primitive cut-off               TCut    ...  2.500e-12
 Pre-screening matrix                    ... done
 Shell pair data                         ... 
 Ordering of the shell pairs             ... done (   0.000 sec) 2899 of 2926 pairs
 Determination of significant pairs      ... done (   0.000 sec)
 Creation of shell pair data             ... done (   0.001 sec)
 Storage of shell pair data              ... done (   0.001 sec)
 Shell pair data done in (   0.002 sec)
 Computing two index integrals           ... done
 Cholesky decomposition of the V-matrix  ... done


Timings:
 Total evaluation time                   ...   0.350 sec (  0.006 min)
 One electron matrix time                ...   0.034 sec (  0.001 min) =  9.8%
 Schwartz matrix evaluation time         ...   0.219 sec (  0.004 min) = 62.6%
 Two index repulsion integral time       ...   0.077 sec (  0.001 min) = 22.0%
 Cholesky decomposition of V             ...   0.001 sec (  0.000 min) =  0.4%
 Three index repulsion integral time     ...   0.000 sec (  0.000 min) =  0.0%



           ************************************************************
           *        Program running with 4 parallel MPI-processes     *
           *              working on a common directory               *
           ************************************************************
-------------------------------------------------------------------------------
                                 ORCA SCF
-------------------------------------------------------------------------------

------------
SCF SETTINGS
------------
Hamiltonian:
 Density Functional     Method          .... DFT(GTOs)
 Exchange Functional    Exchange        .... PBE
   PBE kappa parameter   XKappa         ....  0.804000
   PBE mue parameter    XMuePBE         ....  0.219520
 Correlation Functional Correlation     .... PBE
   PBE beta parameter  CBetaPBE         ....  0.066725
 LDA part of GGA corr.  LDAOpt          .... PW91-LDA
 Gradients option       PostSCFGGA      .... off
 Hybrid DFT is turned on
   Fraction HF Exchange ScalHFX         ....  0.250000
   Scaling of DF-GGA-X  ScalDFX         ....  0.750000
   Scaling of DF-GGA-C  ScalDFC         ....  1.000000
   Scaling of DF-LDA-C  ScalLDAC        ....  1.000000
   Perturbative correction              ....  0.000000
   NL short-range parameter             ....  6.900000
 RI-approximation to the Coulomb term is turned on
   Number of auxiliary basis functions  .... 291
   RI-JK (J+K treated both via RI)      .... on


General Settings:
 Integral files         IntName         .... system
 Hartree-Fock type      HFTyp           .... UHF
 Total Charge           Charge          ....    1
 Multiplicity           Mult            ....    2
 Number of Electrons    NEL             ....   43
 Basis Dimension        Dim             ....  210
 Nuclear Repulsion      ENuc            ....    206.2683590002 Eh

Convergence Acceleration:
 DIIS                   CNVDIIS         .... on
   Start iteration      DIISMaxIt       ....    12
   Startup error        DIISStart       ....  0.200000
   # of expansion vecs  DIISMaxEq       ....     5
   Bias factor          DIISBfac        ....   1.050
   Max. coefficient     DIISMaxC        ....  10.000
 Newton-Raphson         CNVNR           .... off
 SOSCF                  CNVSOSCF        .... off
 Level Shifting         CNVShift        .... on
   Level shift para.    LevelShift      ....    0.2500
   Turn off err/grad.   ShiftErr        ....    0.0010
 Zerner damping         CNVZerner       .... off
 Static damping         CNVDamp         .... on
   Fraction old density DampFac         ....    0.7000
   Max. Damping (<1)    DampMax         ....    0.9800
   Min. Damping (>=0)   DampMin         ....    0.0000
   Turn off err/grad.   DampErr         ....    0.1000
 Fernandez-Rico         CNVRico         .... off

SCF Procedure:
 Maximum # iterations   MaxIter         ....   125
 SCF integral mode      SCFMode         .... Direct
   Integral package                     .... LIBINT
 Reset frequeny         DirectResetFreq ....    20
 Integral Threshold     Thresh          ....  2.500e-11 Eh
 Primitive CutOff       TCut            ....  2.500e-12 Eh

Convergence Tolerance:
 Convergence Check Mode ConvCheckMode   .... Total+1el-Energy
 Convergence forced     ConvForced      .... 0
 Energy Change          TolE            ....  1.000e-08 Eh
 1-El. energy change                    ....  1.000e-05 Eh
 DIIS Error             TolErr          ....  5.000e-07


Diagonalization of the overlap matrix:
Smallest eigenvalue                        ... 1.612e-04
Time for diagonalization                   ...    0.009 sec
Threshold for overlap eigenvalues          ... 1.000e-08
Number of eigenvalues below threshold      ... 0
Time for construction of square roots      ...    0.023 sec
Total time needed                          ...    0.032 sec

-------------------
DFT GRID GENERATION
-------------------

General Integration Accuracy     IntAcc      ...  4.340
Radial Grid Type                 RadialGrid  ... Gauss-Chebyshev
Angular Grid (max. acc.)         AngularGrid ... Lebedev-110
Angular grid pruning method      GridPruning ... 3 (G Style)
Weight generation scheme         WeightScheme... Becke
Basis function cutoff            BFCut       ...    1.0000e-11
Integration weight cutoff        WCut        ...    1.0000e-14
Grids for H and He will be reduced by one unit

# of grid points (after initial pruning)     ...  11606 (   0.0 sec)
# of grid points (after weights+screening)   ...  11089 (   0.0 sec)
nearest neighbour list constructed           ...    0.0 sec
Grid point re-assignment to atoms done       ...    0.0 sec
Grid point division into batches done        ...    0.0 sec
Reduced shell lists constructed in    0.1 sec

Total number of grid points                  ...    11089
Total number of batches                      ...      177
Average number of points per batch           ...       62
Average number of grid points per atom       ...     1232
Average number of shells per batch           ...    67.00 (88.16%)
Average number of basis functions per batch  ...   184.17 (87.70%)
Average number of large shells per batch     ...    60.24 (89.91%)
Average number of large basis fcns per batch ...   165.59 (89.91%)
Average number of aux-shells per batch       ...    67.00 (69.07%)
Average number of aux functions per batch    ...   184.17 (63.29%)
Maximum spatial batch extension              ...  17.90, 15.68, 15.07 au
Average spatial batch extension              ...   0.79,  1.01,  1.02 au

Time for grid setup =    0.103 sec

------------------------------
INITIAL GUESS: MODEL POTENTIAL
------------------------------
Loading Hartree-Fock densities                     ... done
Calculating cut-offs                               ... done
Setting up the integral package                    ... done
Initializing the effective Hamiltonian             ... done
Starting the Coulomb interaction                   ... done (   0.0 sec)
Reading the grid                                   ... done
Mapping shells                                     ... done
Starting the XC term evaluation                    ... done (   0.1 sec)
  promolecular density results
     # of electrons  =     43.994876471
     EX              =    -46.568433537
     EC              =     -1.545993248
     EX+EC           =    -48.114426785
Transforming the Hamiltonian                       ... done (   0.0 sec)
Diagonalizing the Hamiltonian                      ... done (   0.0 sec)
Back transforming the eigenvectors                 ... done (   0.0 sec)
Now organizing SCF variables                       ... done
                      ------------------
                      INITIAL GUESS DONE (   0.4 sec)
                      ------------------
--------------
SCF ITERATIONS
--------------
ITER       Energy         Delta-E        Max-DP      RMS-DP      [F,P]     Damp
  0   -551.7210634151   0.000000000000 0.03150095  0.00041582  0.1127038 0.7000
  1   -551.7588675843  -0.037804169237 0.02764376  0.00035141  0.0717520 0.7000
                               ***Turning on DIIS***
  2   -551.7890211358  -0.030153551424 0.04666636  0.00061859  0.0287128 0.0000
  3   -551.8273464827  -0.038325346964 0.01787622  0.00026180  0.0530166 0.0000
  4   -551.8552470952  -0.027900612435 0.00976324  0.00013158  0.0210394 0.0000
  5   -551.8599121065  -0.004665011292 0.00512856  0.00006430  0.0082109 0.0000
  6   -551.8609693512  -0.001057244716 0.00239215  0.00002871  0.0035321 0.0000
  7   -551.8612005514  -0.000231200235 0.00163699  0.00002128  0.0012347 0.0000
  8   -551.8612958602  -0.000095308755 0.00187951  0.00002623  0.0006760 0.0000
  9   -551.8613491030  -0.000053242891 0.00060469  0.00000732  0.0003178 0.0000
 10   -551.8613541086  -0.000005005570 0.00021416  0.00000309  0.0000683 0.0000
 11   -551.8613549713  -0.000000862683 0.00007820  0.00000099  0.0000230 0.0000
 12   -551.8613550859  -0.000000114616 0.00002897  0.00000051  0.0000088 0.0000
 13   -551.8613551169  -0.000000031013 0.00001337  0.00000026  0.0000075 0.0000
 14   -551.8613551263  -0.000000009395 0.00000807  0.00000022  0.0000039 0.0000
                 **** Energy Check signals convergence ****

               *****************************************************
               *                     SUCCESS                       *
               *           SCF CONVERGED AFTER  15 CYCLES          *
               *****************************************************

Setting up the final grid:

General Integration Accuracy     IntAcc      ...  4.670
Radial Grid Type                 RadialGrid  ... Gauss-Chebyshev
Angular Grid (max. acc.)         AngularGrid ... Lebedev-302
Angular grid pruning method      GridPruning ... 3 (G Style)
Weight generation scheme         WeightScheme... Becke
Basis function cutoff            BFCut       ...    1.0000e-11
Integration weight cutoff        WCut        ...    1.0000e-14
Grids for H and He will be reduced by one unit

# of grid points (after initial pruning)     ...  45270 (   0.0 sec)
# of grid points (after weights+screening)   ...  42839 (   0.0 sec)
nearest neighbour list constructed           ...    0.0 sec
Grid point re-assignment to atoms done       ...    0.0 sec
Grid point division into batches done        ...    0.3 sec
Reduced shell lists constructed in    0.4 sec

Total number of grid points                  ...    42839
Total number of batches                      ...      676
Average number of points per batch           ...       63
Average number of grid points per atom       ...     4760
Average number of shells per batch           ...    64.99 (85.52%)
Average number of basis functions per batch  ...   178.05 (84.79%)
Average number of large shells per batch     ...    55.28 (85.05%)
Average number of large basis fcns per batch ...   151.77 (85.24%)
Maximum spatial batch extension              ...  15.37, 16.94, 17.06 au
Average spatial batch extension              ...   0.51,  0.57,  0.57 au

Final grid set up in    0.5 sec
Final integration                            ... done (   0.8 sec)
Change in XC energy                          ...    -0.000124080
Integrated number of electrons               ...    43.000001854
Previous integrated no of electrons          ...    42.999852672

----------------
TOTAL SCF ENERGY
----------------

Total Energy       :         -551.86147921 Eh          -15016.91429 eV

Components:
Nuclear Repulsion  :          206.26835900 Eh            5612.84740 eV
Electronic Energy  :         -758.12983821 Eh          -20629.76169 eV
One Electron Energy:        -1155.30003543 Eh          -31437.31221 eV
Two Electron Energy:          397.17019721 Eh           10807.55051 eV

Virial components:
Potential Energy   :        -1101.84145270 Eh          -29982.63022 eV
Kinetic Energy     :          549.97997349 Eh           14965.71592 eV
Virial Ratio       :            2.00342104


DFT components:
N(Alpha)           :       21.999999928471 electrons
N(Beta)            :       21.000001925814 electrons
N(Total)           :       43.000001854285 electrons
E(X)               :      -35.033549683110 Eh       
E(C)               :       -1.511934980898 Eh       
E(XC)              :      -36.545484664008 Eh       

---------------
SCF CONVERGENCE
---------------

  Last Energy change         ...   -5.1614e-09  Tolerance :   1.0000e-08
  Last MAX-Density change    ...    3.8131e-06  Tolerance :   1.0000e-07
  Last RMS-Density change    ...    9.6213e-08  Tolerance :   5.0000e-09
  Last DIIS Error            ...    5.9518e-06  Tolerance :   5.0000e-07

             **** THE GBW FILE WAS UPDATED (system.gbw) ****
             **** DENSITY FILE WAS UPDATED (system.scfp.tmp) ****
             **** ENERGY FILE WAS UPDATED (system.en.tmp) ****
----------------------
UHF SPIN CONTAMINATION
----------------------

Warning: in a DFT calculation there is little theoretical justification to 
         calculate <S**2> as in Hartree-Fock theory. We will do it anyways
         but you should keep in mind that the values have only limited relevance

Expectation value of <S**2>     :     0.782132
Ideal value S*(S+1) for S=0.5   :     0.750000
Deviation                       :     0.032132

----------------
ORBITAL ENERGIES
----------------
                 SPIN UP ORBITALS
  NO   OCC          E(Eh)            E(eV) 
   0   1.0000     -89.370621     -2431.8982 
   1   1.0000     -10.490972      -285.4738 
   2   1.0000     -10.490421      -285.4589 
   3   1.0000     -10.475088      -285.0416 
   4   1.0000     -10.475057      -285.0408 
   5   1.0000      -8.247329      -224.4212 
   6   1.0000      -6.163135      -167.7074 
   7   1.0000      -6.158371      -167.5778 
   8   1.0000      -6.156791      -167.5348 
   9   1.0000      -1.177686       -32.0465 
  10   1.0000      -1.023983       -27.8640 
  11   1.0000      -0.984556       -26.7911 
  12   1.0000      -0.813586       -22.1388 
  13   1.0000      -0.812041       -22.0968 
  14   1.0000      -0.769198       -20.9310 
  15   1.0000      -0.663975       -18.0677 
  16   1.0000      -0.649674       -17.6785 
  17   1.0000      -0.642253       -17.4766 
  18   1.0000      -0.638872       -17.3846 
  19   1.0000      -0.602939       -16.4068 
  20   1.0000      -0.540489       -14.7075 
  21   1.0000      -0.484753       -13.1908 
  22   0.0000      -0.242244        -6.5918 
  23   0.0000      -0.189109        -5.1459 
  24   0.0000      -0.174666        -4.7529 
  25   0.0000      -0.114248        -3.1088 
  26   0.0000      -0.108729        -2.9587 
  27   0.0000      -0.069054        -1.8791 
  28   0.0000      -0.059370        -1.6156 
  29   0.0000      -0.046959        -1.2778 
  30   0.0000      -0.000953        -0.0259 
  31   0.0000       0.001012         0.0275 
  32   0.0000       0.037572         1.0224 
  33   0.0000       0.051608         1.4043 
  34   0.0000       0.080428         2.1886 
  35   0.0000       0.091318         2.4849 
  36   0.0000       0.104500         2.8436 
  37   0.0000       0.136103         3.7035 
  38   0.0000       0.137767         3.7488 
  39   0.0000       0.139511         3.7963 
  40   0.0000       0.162445         4.4203 
  41   0.0000       0.167838         4.5671 
  42   0.0000       0.169098         4.6014 
  43   0.0000       0.176430         4.8009 
  44   0.0000       0.194900         5.3035 
  45   0.0000       0.221700         6.0328 
  46   0.0000       0.242466         6.5978 
  47   0.0000       0.254990         6.9386 
  48   0.0000       0.281625         7.6634 
  49   0.0000       0.285093         7.7578 
  50   0.0000       0.305652         8.3172 
  51   0.0000       0.329376         8.9628 
  52   0.0000       0.338418         9.2088 
  53   0.0000       0.378205        10.2915 
  54   0.0000       0.383869        10.4456 
  55   0.0000       0.402440        10.9509 
  56   0.0000       0.455163        12.3856 
  57   0.0000       0.461292        12.5524 
  58   0.0000       0.482995        13.1430 
  59   0.0000       0.509919        13.8756 
  60   0.0000       0.511447        13.9172 
  61   0.0000       0.591539        16.0966 
  62   0.0000       0.603117        16.4117 
  63   0.0000       0.607956        16.5433 
  64   0.0000       0.649538        17.6748 
  65   0.0000       0.682144        18.5621 
  66   0.0000       0.719557        19.5802 
  67   0.0000       0.746952        20.3256 
  68   0.0000       0.759273        20.6609 
  69   0.0000       0.770142        20.9566 
  70   0.0000       0.793416        21.5899 
  71   0.0000       0.829233        22.5646 
  72   0.0000       0.853818        23.2336 
  73   0.0000       0.854113        23.2416 
  74   0.0000       0.896244        24.3880 
  75   0.0000       0.935987        25.4695 
  76   0.0000       0.993803        27.0427 
  77   0.0000       0.998140        27.1608 
  78   0.0000       1.024287        27.8723 
  79   0.0000       1.033857        28.1327 
  80   0.0000       1.062047        28.8998 
  81   0.0000       1.064317        28.9615 
  82   0.0000       1.077858        29.3300 
  83   0.0000       1.107714        30.1424 
  84   0.0000       1.120481        30.4898 
  85   0.0000       1.185297        32.2536 
  86   0.0000       1.195783        32.5389 
  87   0.0000       1.198644        32.6168 
  88   0.0000       1.253951        34.1217 
  89   0.0000       1.302036        35.4302 
  90   0.0000       1.324898        36.0523 
  91   0.0000       1.339396        36.4468 
  92   0.0000       1.342818        36.5399 
  93   0.0000       1.386513        37.7289 
  94   0.0000       1.393578        37.9212 
  95   0.0000       1.456775        39.6409 
  96   0.0000       1.523084        41.4452 
  97   0.0000       1.572128        42.7798 
  98   0.0000       1.603584        43.6357 
  99   0.0000       1.622188        44.1420 
 100   0.0000       1.714988        46.6672 
 101   0.0000       1.717007        46.7221 
 102   0.0000       1.727716        47.0135 
 103   0.0000       1.738840        47.3162 
 104   0.0000       1.768591        48.1258 
 105   0.0000       1.827884        49.7393 
 106   0.0000       1.857694        50.5504 
 107   0.0000       1.902704        51.7752 
 108   0.0000       1.964464        53.4558 
 109   0.0000       2.006428        54.5977 
 110   0.0000       2.024601        55.0922 
 111   0.0000       2.031824        55.2887 
 112   0.0000       2.052316        55.8464 
 113   0.0000       2.164619        58.9023 
 114   0.0000       2.192485        59.6606 
 115   0.0000       2.216388        60.3110 
 116   0.0000       2.233989        60.7899 
 117   0.0000       2.245913        61.1144 
 118   0.0000       2.312942        62.9384 
 119   0.0000       2.337162        63.5974 
 120   0.0000       2.405613        65.4601 
 121   0.0000       2.431212        66.1566 
 122   0.0000       2.438368        66.3514 
 123   0.0000       2.479923        67.4821 
 124   0.0000       2.525786        68.7301 
 125   0.0000       2.577266        70.1310 
 126   0.0000       2.583911        70.3118 
 127   0.0000       2.601343        70.7861 
 128   0.0000       2.635493        71.7154 
 129   0.0000       2.669602        72.6436 
 130   0.0000       2.712612        73.8139 
 131   0.0000       2.723276        74.1041 
 132   0.0000       2.737916        74.5025 
 133   0.0000       2.755337        74.9765 
 134   0.0000       2.777483        75.5791 
 135   0.0000       2.808749        76.4299 
 136   0.0000       2.816570        76.6428 
 137   0.0000       2.865182        77.9656 
 138   0.0000       2.874705        78.2247 
 139   0.0000       2.881559        78.4112 
 140   0.0000       2.915489        79.3345 
 141   0.0000       2.926465        79.6332 
 142   0.0000       2.943357        80.0928 
 143   0.0000       2.971706        80.8642 
 144   0.0000       2.997586        81.5685 
 145   0.0000       3.009329        81.8880 
 146   0.0000       3.028564        82.4114 
 147   0.0000       3.037057        82.6425 
 148   0.0000       3.113697        84.7280 
 149   0.0000       3.145686        85.5985 
 150   0.0000       3.153717        85.8170 
 151   0.0000       3.158586        85.9495 
 152   0.0000       3.214340        87.4666 
 153   0.0000       3.244254        88.2806 
 154   0.0000       3.249510        88.4237 
 155   0.0000       3.271019        89.0089 
 156   0.0000       3.336487        90.7904 
 157   0.0000       3.388988        92.2190 
 158   0.0000       3.409464        92.7762 
 159   0.0000       3.459787        94.1456 
 160   0.0000       3.462782        94.2271 
 161   0.0000       3.471059        94.4523 
 162   0.0000       3.525657        95.9380 
 163   0.0000       3.563440        96.9661 
 164   0.0000       3.575068        97.2825 
 165   0.0000       3.627667        98.7138 
 166   0.0000       3.632341        98.8410 
 167   0.0000       3.646933        99.2381 
 168   0.0000       3.726390       101.4002 
 169   0.0000       3.733286       101.5879 
 170   0.0000       3.736523       101.6760 
 171   0.0000       3.747936       101.9865 
 172   0.0000       3.841939       104.5445 
 173   0.0000       3.863158       105.1219 
 174   0.0000       3.883679       105.6803 
 175   0.0000       3.962750       107.8319 
 176   0.0000       3.995929       108.7348 
 177   0.0000       4.047786       110.1459 
 178   0.0000       4.065162       110.6187 
 179   0.0000       4.095533       111.4451 
 180   0.0000       4.122505       112.1791 
 181   0.0000       4.127553       112.3164 
 182   0.0000       4.157165       113.1222 
 183   0.0000       4.261168       115.9523 
 184   0.0000       4.286039       116.6291 
 185   0.0000       4.361752       118.6893 
 186   0.0000       4.370043       118.9149 
 187   0.0000       4.406972       119.9198 
 188   0.0000       4.470572       121.6505 
 189   0.0000       4.609097       125.4199 
 190   0.0000       4.622322       125.7798 
 191   0.0000       4.702783       127.9692 
 192   0.0000       4.772594       129.8689 
 193   0.0000       4.789626       130.3324 
 194   0.0000       4.818119       131.1077 
 195   0.0000       4.831006       131.4584 
 196   0.0000       4.934833       134.2836 
 197   0.0000       5.072233       138.0225 
 198   0.0000       5.117829       139.2632 
 199   0.0000       5.358055       145.8001 
 200   0.0000       5.400321       146.9502 
 201   0.0000       5.512865       150.0127 
 202   0.0000       5.600856       152.4070 
 203   0.0000       5.690805       154.8547 
 204   0.0000       5.962931       162.2596 
 205   0.0000       6.150023       167.3506 
 206   0.0000       9.419017       256.3045 
 207   0.0000      11.246751       306.0397 
 208   0.0000      12.667940       344.7122 
 209   0.0000      13.502857       367.4314 

                 SPIN DOWN ORBITALS
  NO   OCC          E(Eh)            E(eV) 
   0   1.0000     -89.367856     -2431.8230 
   1   1.0000     -10.485275      -285.3188 
   2   1.0000     -10.484773      -285.3052 
   3   1.0000     -10.477334      -285.1028 
   4   1.0000     -10.477303      -285.1019 
   5   1.0000      -8.244394      -224.3414 
   6   1.0000      -6.161525      -167.6636 
   7   1.0000      -6.156925      -167.5384 
   8   1.0000      -6.145068      -167.2158 
   9   1.0000      -1.166257       -31.7355 
  10   1.0000      -0.998795       -27.1786 
  11   1.0000      -0.982810       -26.7436 
  12   1.0000      -0.806510       -21.9463 
  13   1.0000      -0.805046       -21.9064 
  14   1.0000      -0.765352       -20.8263 
  15   1.0000      -0.649273       -17.6676 
  16   1.0000      -0.637092       -17.3362 
  17   1.0000      -0.635895       -17.3036 
  18   1.0000      -0.625980       -17.0338 
  19   1.0000      -0.595087       -16.1932 
  20   1.0000      -0.481039       -13.0897 
  21   0.0000      -0.416909       -11.3447 
  22   0.0000      -0.221199        -6.0191 
  23   0.0000      -0.171869        -4.6768 
  24   0.0000      -0.153152        -4.1675 
  25   0.0000      -0.112803        -3.0695 
  26   0.0000      -0.094972        -2.5843 
  27   0.0000      -0.068755        -1.8709 
  28   0.0000      -0.057952        -1.5770 
  29   0.0000      -0.042452        -1.1552 
  30   0.0000       0.002093         0.0570 
  31   0.0000       0.011158         0.3036 
  32   0.0000       0.039679         1.0797 
  33   0.0000       0.064830         1.7641 
  34   0.0000       0.085715         2.3324 
  35   0.0000       0.099851         2.7171 
  36   0.0000       0.123802         3.3688 
  37   0.0000       0.136526         3.7151 
  38   0.0000       0.137457         3.7404 
  39   0.0000       0.143915         3.9161 
  40   0.0000       0.175970         4.7884 
  41   0.0000       0.177032         4.8173 
  42   0.0000       0.186009         5.0616 
  43   0.0000       0.194144         5.2829 
  44   0.0000       0.202892         5.5210 
  45   0.0000       0.226647         6.1674 
  46   0.0000       0.255423         6.9504 
  47   0.0000       0.255786         6.9603 
  48   0.0000       0.282118         7.6768 
  49   0.0000       0.287453         7.8220 
  50   0.0000       0.308630         8.3983 
  51   0.0000       0.332131         9.0377 
  52   0.0000       0.341675         9.2974 
  53   0.0000       0.389980        10.6119 
  54   0.0000       0.394956        10.7473 
  55   0.0000       0.412534        11.2256 
  56   0.0000       0.458498        12.4764 
  57   0.0000       0.479782        13.0555 
  58   0.0000       0.485603        13.2139 
  59   0.0000       0.510197        13.8832 
  60   0.0000       0.513023        13.9601 
  61   0.0000       0.596468        16.2307 
  62   0.0000       0.608970        16.5709 
  63   0.0000       0.617609        16.8060 
  64   0.0000       0.653494        17.7825 
  65   0.0000       0.688419        18.7328 
  66   0.0000       0.724611        19.7177 
  67   0.0000       0.751637        20.4531 
  68   0.0000       0.764694        20.8084 
  69   0.0000       0.775970        21.1152 
  70   0.0000       0.802458        21.8360 
  71   0.0000       0.841031        22.8856 
  72   0.0000       0.855672        23.2840 
  73   0.0000       0.862000        23.4562 
  74   0.0000       0.897347        24.4181 
  75   0.0000       0.936728        25.4897 
  76   0.0000       0.995359        27.0851 
  77   0.0000       1.000067        27.2132 
  78   0.0000       1.028179        27.9782 
  79   0.0000       1.034808        28.1586 
  80   0.0000       1.065657        28.9980 
  81   0.0000       1.066390        29.0180 
  82   0.0000       1.092058        29.7164 
  83   0.0000       1.119605        30.4660 
  84   0.0000       1.126447        30.6522 
  85   0.0000       1.199408        32.6376 
  86   0.0000       1.200124        32.6570 
  87   0.0000       1.208345        32.8807 
  88   0.0000       1.257084        34.2070 
  89   0.0000       1.302878        35.4531 
  90   0.0000       1.345119        36.6025 
  91   0.0000       1.345767        36.6202 
  92   0.0000       1.359994        37.0073 
  93   0.0000       1.399979        38.0954 
  94   0.0000       1.402965        38.1766 
  95   0.0000       1.460236        39.7350 
  96   0.0000       1.537901        41.8484 
  97   0.0000       1.592143        43.3244 
  98   0.0000       1.620987        44.1093 
  99   0.0000       1.649859        44.8949 
 100   0.0000       1.727940        47.0196 
 101   0.0000       1.730672        47.0940 
 102   0.0000       1.733995        47.1844 
 103   0.0000       1.741908        47.3997 
 104   0.0000       1.770932        48.1895 
 105   0.0000       1.832419        49.8627 
 106   0.0000       1.888349        51.3846 
 107   0.0000       1.917101        52.1670 
 108   0.0000       1.973964        53.7143 
 109   0.0000       2.007833        54.6359 
 110   0.0000       2.029862        55.2353 
 111   0.0000       2.032765        55.3143 
 112   0.0000       2.062225        56.1160 
 113   0.0000       2.173597        59.1466 
 114   0.0000       2.208121        60.0860 
 115   0.0000       2.225940        60.5709 
 116   0.0000       2.238010        60.8993 
 117   0.0000       2.247532        61.1585 
 118   0.0000       2.325963        63.2927 
 119   0.0000       2.346830        63.8605 
 120   0.0000       2.416269        65.7500 
 121   0.0000       2.438587        66.3573 
 122   0.0000       2.449381        66.6510 
 123   0.0000       2.480697        67.5032 
 124   0.0000       2.526729        68.7558 
 125   0.0000       2.579054        70.1796 
 126   0.0000       2.585410        70.3526 
 127   0.0000       2.611407        71.0600 
 128   0.0000       2.651922        72.1625 
 129   0.0000       2.681387        72.9643 
 130   0.0000       2.715184        73.8839 
 131   0.0000       2.726403        74.1892 
 132   0.0000       2.740964        74.5854 
 133   0.0000       2.759878        75.1001 
 134   0.0000       2.778021        75.5938 
 135   0.0000       2.810002        76.4640 
 136   0.0000       2.818185        76.6867 
 137   0.0000       2.870117        78.0999 
 138   0.0000       2.884993        78.5046 
 139   0.0000       2.893625        78.7395 
 140   0.0000       2.926576        79.6362 
 141   0.0000       2.927578        79.6635 
 142   0.0000       2.943670        80.1013 
 143   0.0000       2.973637        80.9168 
 144   0.0000       3.004539        81.7577 
 145   0.0000       3.010892        81.9305 
 146   0.0000       3.033011        82.5324 
 147   0.0000       3.041990        82.7767 
 148   0.0000       3.114655        84.7541 
 149   0.0000       3.146384        85.6175 
 150   0.0000       3.156366        85.8891 
 151   0.0000       3.167731        86.1984 
 152   0.0000       3.221075        87.6499 
 153   0.0000       3.245121        88.3042 
 154   0.0000       3.255057        88.5746 
 155   0.0000       3.277627        89.1888 
 156   0.0000       3.339475        90.8717 
 157   0.0000       3.392852        92.3242 
 158   0.0000       3.411975        92.8446 
 159   0.0000       3.465634        94.3047 
 160   0.0000       3.467109        94.3448 
 161   0.0000       3.471799        94.4724 
 162   0.0000       3.528462        96.0143 
 163   0.0000       3.565414        97.0199 
 164   0.0000       3.578283        97.3700 
 165   0.0000       3.631881        98.8285 
 166   0.0000       3.633316        98.8676 
 167   0.0000       3.654776        99.4515 
 168   0.0000       3.726486       101.4028 
 169   0.0000       3.733559       101.5953 
 170   0.0000       3.739114       101.7465 
 171   0.0000       3.748322       101.9970 
 172   0.0000       3.843724       104.5931 
 173   0.0000       3.863668       105.1358 
 174   0.0000       3.885296       105.7243 
 175   0.0000       3.970390       108.0398 
 176   0.0000       4.000081       108.8477 
 177   0.0000       4.050109       110.2091 
 178   0.0000       4.065799       110.6360 
 179   0.0000       4.114403       111.9586 
 180   0.0000       4.124302       112.2280 
 181   0.0000       4.134487       112.5051 
 182   0.0000       4.161032       113.2274 
 183   0.0000       4.262661       115.9929 
 184   0.0000       4.290433       116.7486 
 185   0.0000       4.362737       118.7161 
 186   0.0000       4.371261       118.9481 
 187   0.0000       4.418350       120.2294 
 188   0.0000       4.477214       121.8312 
 189   0.0000       4.610614       125.4612 
 190   0.0000       4.623324       125.8070 
 191   0.0000       4.704061       128.0040 
 192   0.0000       4.773191       129.8851 
 193   0.0000       4.791394       130.3805 
 194   0.0000       4.818692       131.1233 
 195   0.0000       4.832238       131.4919 
 196   0.0000       4.934881       134.2850 
 197   0.0000       5.072624       138.0331 
 198   0.0000       5.125781       139.4796 
 199   0.0000       5.359003       145.8259 
 200   0.0000       5.402985       147.0227 
 201   0.0000       5.514047       150.0448 
 202   0.0000       5.604056       152.4941 
 203   0.0000       5.693669       154.9326 
 204   0.0000       5.964382       162.2991 
 205   0.0000       6.151836       167.4000 
 206   0.0000       9.421065       256.3602 
 207   0.0000      11.247962       306.0726 
 208   0.0000      12.671779       344.8166 
 209   0.0000      13.509504       367.6123 

                    ********************************
                    * MULLIKEN POPULATION ANALYSIS *
                    ********************************

--------------------------------------------
MULLIKEN ATOMIC CHARGES AND SPIN POPULATIONS
--------------------------------------------
   0 C :    0.007512    0.366325
   1 C :   -0.161355   -0.140409
   2 S :    0.487345    0.563355
   3 C :   -0.161090   -0.140290
   4 C :    0.007262    0.365302
   5 H :    0.200441   -0.009104
   6 H :    0.209864    0.001953
   7 H :    0.209701    0.001956
   8 H :    0.200320   -0.009089
Sum of atomic charges         :    1.0000000
Sum of atomic spin populations:    1.0000000

-----------------------------------------------------
MULLIKEN REDUCED ORBITAL CHARGES AND SPIN POPULATIONS
-----------------------------------------------------
CHARGE
  0 C s       :     3.258173  s :     3.258173
      pz      :     0.817400  p :     2.622777
      px      :     0.972398
      py      :     0.832979
      dz2     :     0.018946  d :     0.102608
      dxz     :     0.025915
      dyz     :     0.009682
      dx2y2   :     0.019924
      dxy     :     0.028142
      f0      :     0.000864  f :     0.008929
      f+1     :     0.000988
      f-1     :     0.001011
      f+2     :     0.001424
      f-2     :     0.001541
      f+3     :     0.001718
      f-3     :     0.001384
  1 C s       :     3.221408  s :     3.221408
      pz      :     1.004717  p :     2.839751
      px      :     0.839691
      py      :     0.995343
      dz2     :     0.014605  d :     0.091783
      dxz     :     0.022740
      dyz     :     0.009826
      dx2y2   :     0.019535
      dxy     :     0.025078
      f0      :     0.000669  f :     0.008413
      f+1     :     0.001030
      f-1     :     0.001035
      f+2     :     0.001603
      f-2     :     0.001359
      f+3     :     0.001503
      f-3     :     0.001214
  2 S s       :     5.832840  s :     5.832840
      pz      :     3.059196  p :     9.429753
      px      :     3.328165
      py      :     3.042391
      dz2     :     0.056515  d :     0.227740
      dxz     :     0.047401
      dyz     :     0.030571
      dx2y2   :     0.040777
      dxy     :     0.052477
      f0      :     0.001574  f :     0.022322
      f+1     :     0.004770
      f-1     :     0.001585
      f+2     :     0.003019
      f-2     :     0.003440
      f+3     :     0.004412
      f-3     :     0.003522
  3 C s       :     3.221139  s :     3.221139
      pz      :     1.003986  p :     2.839840
      px      :     0.840619
      py      :     0.995235
      dz2     :     0.014533  d :     0.091703
      dxz     :     0.022883
      dyz     :     0.009757
      dx2y2   :     0.019381
      dxy     :     0.025149
      f0      :     0.000674  f :     0.008409
      f+1     :     0.001021
      f-1     :     0.001036
      f+2     :     0.001611
      f-2     :     0.001353
      f+3     :     0.001497
      f-3     :     0.001218
  4 C s       :     3.258212  s :     3.258212
      pz      :     0.817954  p :     2.623066
      px      :     0.971811
      py      :     0.833301
      dz2     :     0.018765  d :     0.102533
      dxz     :     0.026096
      dyz     :     0.009650
      dx2y2   :     0.019820
      dxy     :     0.028203
      f0      :     0.000875  f :     0.008928
      f+1     :     0.000970
      f-1     :     0.001013
      f+2     :     0.001432
      f-2     :     0.001534
      f+3     :     0.001715
      f-3     :     0.001390
  5 H s       :     0.764795  s :     0.764795
      pz      :     0.010015  p :     0.032456
      px      :     0.012051
      py      :     0.010389
      dz2     :     0.000302  d :     0.002308
      dxz     :     0.000484
      dyz     :     0.000313
      dx2y2   :     0.000706
      dxy     :     0.000503
  6 H s       :     0.751530  s :     0.751530
      pz      :     0.014408  p :     0.036218
      px      :     0.007667
      py      :     0.014142
      dz2     :     0.000612  d :     0.002388
      dxz     :     0.000393
      dyz     :     0.000453
      dx2y2   :     0.000462
      dxy     :     0.000468
  7 H s       :     0.751667  s :     0.751667
      pz      :     0.014425  p :     0.036244
      px      :     0.007664
      py      :     0.014154
      dz2     :     0.000611  d :     0.002389
      dxz     :     0.000390
      dyz     :     0.000455
      dx2y2   :     0.000467
      dxy     :     0.000465
  8 H s       :     0.764901  s :     0.764901
      pz      :     0.010043  p :     0.032472
      px      :     0.012023
      py      :     0.010406
      dz2     :     0.000306  d :     0.002307
      dxz     :     0.000480
      dyz     :     0.000316
      dx2y2   :     0.000706
      dxy     :     0.000499

SPIN
  0 C s       :     0.013328  s :     0.013328
      pz      :     0.186635  p :     0.349175
      px      :     0.012915
      py      :     0.149625
      dz2     :     0.004491  d :     0.004384
      dxz     :    -0.000479
      dyz     :    -0.000939
      dx2y2   :     0.001513
      dxy     :    -0.000201
      f0      :     0.000001  f :    -0.000562
      f+1     :    -0.000074
      f-1     :     0.000051
      f+2     :    -0.000255
      f-2     :    -0.000192
      f+3     :    -0.000062
      f-3     :    -0.000030
  1 C s       :    -0.010240  s :    -0.010240
      pz      :    -0.070150  p :    -0.143016
      px      :    -0.014472
      py      :    -0.058393
      dz2     :    -0.000716  d :     0.011688
      dxz     :     0.007270
      dyz     :     0.000047
      dx2y2   :    -0.000502
      dxy     :     0.005590
      f0      :     0.000083  f :     0.001159
      f+1     :     0.000426
      f-1     :     0.000055
      f+2     :     0.000137
      f-2     :     0.000069
      f+3     :     0.000269
      f-3     :     0.000120
  2 S s       :     0.021277  s :     0.021277
      pz      :     0.304359  p :     0.548393
      px      :    -0.002071
      py      :     0.246104
      dz2     :    -0.001167  d :    -0.004099
      dxz     :    -0.002499
      dyz     :     0.001825
      dx2y2   :    -0.000164
      dxy     :    -0.002094
      f0      :    -0.000356  f :    -0.002215
      f+1     :    -0.000136
      f-1     :    -0.000555
      f+2     :    -0.000363
      f-2     :    -0.000622
      f+3     :     0.000026
      f-3     :    -0.000209
  3 C s       :    -0.010213  s :    -0.010213
      pz      :    -0.070111  p :    -0.142912
      px      :    -0.014432
      py      :    -0.058369
      dz2     :    -0.000695  d :     0.011677
      dxz     :     0.007251
      dyz     :     0.000048
      dx2y2   :    -0.000502
      dxy     :     0.005575
      f0      :     0.000086  f :     0.001158
      f+1     :     0.000421
      f-1     :     0.000055
      f+2     :     0.000138
      f-2     :     0.000069
      f+3     :     0.000269
      f-3     :     0.000120
  4 C s       :     0.013278  s :     0.013278
      pz      :     0.186216  p :     0.348189
      px      :     0.012832
      py      :     0.149141
      dz2     :     0.004494  d :     0.004395
      dxz     :    -0.000472
      dyz     :    -0.000941
      dx2y2   :     0.001513
      dxy     :    -0.000200
      f0      :     0.000001  f :    -0.000560
      f+1     :    -0.000073
      f-1     :     0.000052
      f+2     :    -0.000256
      f-2     :    -0.000192
      f+3     :    -0.000062
      f-3     :    -0.000030
  5 H s       :    -0.014003  s :    -0.014003
      pz      :     0.002158  p :     0.004527
      px      :     0.000668
      py      :     0.001700
      dz2     :     0.000086  d :     0.000372
      dxz     :     0.000131
      dyz     :     0.000001
      dx2y2   :     0.000043
      dxy     :     0.000111
  6 H s       :     0.004169  s :     0.004169
      pz      :    -0.001086  p :    -0.002087
      px      :    -0.000105
      py      :    -0.000897
      dz2     :    -0.000073  d :    -0.000128
      dxz     :    -0.000006
      dyz     :    -0.000010
      dx2y2   :    -0.000032
      dxy     :    -0.000007
  7 H s       :     0.004170  s :     0.004170
      pz      :    -0.001084  p :    -0.002086
      px      :    -0.000105
      py      :    -0.000897
      dz2     :    -0.000072  d :    -0.000128
      dxz     :    -0.000006
      dyz     :    -0.000010
      dx2y2   :    -0.000032
      dxy     :    -0.000007
  8 H s       :    -0.013974  s :    -0.013974
      pz      :     0.002156  p :     0.004513
      px      :     0.000661
      py      :     0.001696
      dz2     :     0.000088  d :     0.000371
      dxz     :     0.000130
      dyz     :     0.000000
      dx2y2   :     0.000043
      dxy     :     0.000111


                     *******************************
                     * LOEWDIN POPULATION ANALYSIS *
                     *******************************

-------------------------------------------
LOEWDIN ATOMIC CHARGES AND SPIN POPULATIONS
-------------------------------------------
   0 C :    0.135618    0.292517
   1 C :   -0.131893   -0.035733
   2 S :    0.994596    0.472526
   3 C :   -0.131948   -0.035695
   4 C :    0.135421    0.291841
   5 H :    0.014507    0.013519
   6 H :   -0.015381   -0.006230
   7 H :   -0.015394   -0.006224
   8 H :    0.014475    0.013478

----------------------------------------------------
LOEWDIN REDUCED ORBITAL CHARGES AND SPIN POPULATIONS
----------------------------------------------------
CHARGE
  0 C s       :     2.717135  s :     2.717135
      pz      :     0.812344  p :     2.674254
      px      :     1.014575
      py      :     0.847335
      dz2     :     0.068523  d :     0.423962
      dxz     :     0.093665
      dyz     :     0.054972
      dx2y2   :     0.100254
      dxy     :     0.106547
      f0      :     0.005529  f :     0.049031
      f+1     :     0.006216
      f-1     :     0.004479
      f+2     :     0.006105
      f-2     :     0.008503
      f+3     :     0.010438
      f-3     :     0.007761
  1 C s       :     2.754931  s :     2.754931
      pz      :     0.955512  p :     2.929077
      px      :     1.011232
      py      :     0.962332
      dz2     :     0.049431  d :     0.405117
      dxz     :     0.098447
      dyz     :     0.049471
      dx2y2   :     0.096484
      dxy     :     0.111285
      f0      :     0.003840  f :     0.042768
      f+1     :     0.006524
      f-1     :     0.002627
      f+2     :     0.005890
      f-2     :     0.007492
      f+3     :     0.008913
      f-3     :     0.007481
  2 S s       :     5.276055  s :     5.276055
      pz      :     2.983571  p :     9.269045
      px      :     3.311246
      py      :     2.974227
      dz2     :     0.093184  d :     0.391341
      dxz     :     0.072865
      dyz     :     0.064149
      dx2y2   :     0.077234
      dxy     :     0.083908
      f0      :     0.004537  f :     0.068964
      f+1     :     0.014223
      f-1     :     0.003818
      f+2     :     0.009374
      f-2     :     0.011132
      f+3     :     0.013859
      f-3     :     0.012020
  3 C s       :     2.754931  s :     2.754931
      pz      :     0.955196  p :     2.929087
      px      :     1.011656
      py      :     0.962235
      dz2     :     0.049356  d :     0.405161
      dxz     :     0.098887
      dyz     :     0.049358
      dx2y2   :     0.096053
      dxy     :     0.111507
      f0      :     0.003874  f :     0.042769
      f+1     :     0.006475
      f-1     :     0.002650
      f+2     :     0.005933
      f-2     :     0.007448
      f+3     :     0.008876
      f-3     :     0.007513
  4 C s       :     2.717116  s :     2.717116
      pz      :     0.812450  p :     2.674617
      px      :     1.014611
      py      :     0.847556
      dz2     :     0.067997  d :     0.423821
      dxz     :     0.094061
      dyz     :     0.054875
      dx2y2   :     0.100182
      dxy     :     0.106706
      f0      :     0.005587  f :     0.049026
      f+1     :     0.006122
      f-1     :     0.004496
      f+2     :     0.006138
      f-2     :     0.008454
      f+3     :     0.010428
      f-3     :     0.007800
  5 H s       :     0.804369  s :     0.804369
      pz      :     0.040372  p :     0.153076
      px      :     0.069972
      py      :     0.042731
      dz2     :     0.003627  d :     0.028049
      dxz     :     0.006849
      dyz     :     0.002801
      dx2y2   :     0.007438
      dxy     :     0.007334
  6 H s       :     0.815905  s :     0.815905
      pz      :     0.064579  p :     0.169357
      px      :     0.035597
      py      :     0.069180
      dz2     :     0.007155  d :     0.030119
      dxz     :     0.004086
      dyz     :     0.008411
      dx2y2   :     0.005517
      dxy     :     0.004950
  7 H s       :     0.815922  s :     0.815922
      pz      :     0.064458  p :     0.169353
      px      :     0.035746
      py      :     0.069149
      dz2     :     0.007129  d :     0.030118
      dxz     :     0.004097
      dyz     :     0.008385
      dx2y2   :     0.005536
      dxy     :     0.004970
  8 H s       :     0.804380  s :     0.804380
      pz      :     0.040584  p :     0.153094
      px      :     0.069698
      py      :     0.042812
      dz2     :     0.003648  d :     0.028051
      dxz     :     0.006846
      dyz     :     0.002844
      dx2y2   :     0.007408
      dxy     :     0.007305

SPIN
  0 C s       :     0.006541  s :     0.006541
      pz      :     0.151135  p :     0.276097
      px      :     0.004624
      py      :     0.120339
      dz2     :     0.012425  d :     0.009364
      dxz     :    -0.003597
      dyz     :    -0.000552
      dx2y2   :     0.004055
      dxy     :    -0.002968
      f0      :     0.000712  f :     0.000515
      f+1     :    -0.000213
      f-1     :     0.000704
      f+2     :    -0.000591
      f-2     :    -0.000135
      f+3     :    -0.000156
      f-3     :     0.000193
  1 C s       :    -0.003846  s :    -0.003846
      pz      :    -0.046321  p :    -0.090766
      px      :    -0.006739
      py      :    -0.037706
      dz2     :     0.002953  d :     0.052340
      dxz     :     0.026180
      dyz     :     0.000605
      dx2y2   :     0.001547
      dxy     :     0.021055
      f0      :     0.000429  f :     0.006540
      f+1     :     0.002762
      f-1     :     0.000249
      f+2     :     0.000582
      f-2     :     0.000119
      f+3     :     0.001682
      f-3     :     0.000716
  2 S s       :     0.007326  s :     0.007326
      pz      :     0.266504  p :     0.477719
      px      :    -0.003174
      py      :     0.214389
      dz2     :    -0.005006  d :    -0.009246
      dxz     :    -0.002447
      dyz     :     0.002925
      dx2y2   :    -0.002326
      dxy     :    -0.002392
      f0      :    -0.000402  f :    -0.003273
      f+1     :    -0.000889
      f-1     :    -0.000361
      f+2     :    -0.000151
      f-2     :    -0.000716
      f+3     :    -0.000445
      f-3     :    -0.000309
  3 C s       :    -0.003842  s :    -0.003842
      pz      :    -0.046292  p :    -0.090689
      px      :    -0.006710
      py      :    -0.037687
      dz2     :     0.003076  d :     0.052303
      dxz     :     0.026085
      dyz     :     0.000602
      dx2y2   :     0.001525
      dxy     :     0.021015
      f0      :     0.000458  f :     0.006533
      f+1     :     0.002724
      f-1     :     0.000252
      f+2     :     0.000585
      f-2     :     0.000120
      f+3     :     0.001678
      f-3     :     0.000717
  4 C s       :     0.006522  s :     0.006522
      pz      :     0.150786  p :     0.275344
      px      :     0.004614
      py      :     0.119943
      dz2     :     0.012455  d :     0.009447
      dxz     :    -0.003575
      dyz     :    -0.000549
      dx2y2   :     0.004076
      dxy     :    -0.002960
      f0      :     0.000713  f :     0.000528
      f+1     :    -0.000203
      f-1     :     0.000709
      f+2     :    -0.000592
      f-2     :    -0.000136
      f+3     :    -0.000159
      f-3     :     0.000196
  5 H s       :    -0.006938  s :    -0.006938
      pz      :     0.008556  p :     0.016788
      px      :     0.001321
      py      :     0.006911
      dz2     :     0.000870  d :     0.003669
      dxz     :     0.001360
      dyz     :    -0.000001
      dx2y2   :     0.000326
      dxy     :     0.001115
  6 H s       :     0.001710  s :     0.001710
      pz      :    -0.003295  p :    -0.006561
      px      :    -0.000495
      py      :    -0.002771
      dz2     :    -0.000844  d :    -0.001378
      dxz     :    -0.000079
      dyz     :    -0.000042
      dx2y2   :    -0.000323
      dxy     :    -0.000091
  7 H s       :     0.001708  s :     0.001708
      pz      :    -0.003291  p :    -0.006555
      px      :    -0.000496
      py      :    -0.002768
      dz2     :    -0.000839  d :    -0.001377
      dxz     :    -0.000081
      dyz     :    -0.000043
      dx2y2   :    -0.000323
      dxy     :    -0.000091
  8 H s       :    -0.006923  s :    -0.006923
      pz      :     0.008543  p :     0.016742
      px      :     0.001308
      py      :     0.006891
      dz2     :     0.000889  d :     0.003660
      dxz     :     0.001342
      dyz     :    -0.000002
      dx2y2   :     0.000320
      dxy     :     0.001110


                      *****************************
                      * MAYER POPULATION ANALYSIS *
                      *****************************

  NA   - Mulliken gross atomic population
  ZA   - Total nuclear charge
  QA   - Mulliken gross atomic charge
  VA   - Mayer's total valence
  BVA  - Mayer's bonded valence
  FA   - Mayer's free valence

  ATOM       NA         ZA         QA         VA         BVA        FA
  0 C      5.9925     6.0000     0.0075     3.8136     3.6996     0.1140
  1 C      6.1614     6.0000    -0.1614     3.8407     3.8266     0.0141
  2 S     15.5127    16.0000     0.4873     3.1022     2.8135     0.2887
  3 C      6.1611     6.0000    -0.1611     3.8407     3.8266     0.0141
  4 C      5.9927     6.0000     0.0073     3.8141     3.7007     0.1134
  5 H      0.7996     1.0000     0.2004     0.9745     0.9743     0.0002
  6 H      0.7901     1.0000     0.2099     0.9736     0.9736     0.0000
  7 H      0.7903     1.0000     0.2097     0.9737     0.9737     0.0000
  8 H      0.7997     1.0000     0.2003     0.9746     0.9744     0.0002

  Mayer bond orders larger than 0.1
B(  0-C ,  1-C ) :   1.5128 B(  0-C ,  2-S ) :   0.1365 B(  0-C ,  4-C ) :   1.0823 
B(  0-C ,  5-H ) :   0.9356 B(  1-C ,  2-S ) :   1.2437 B(  1-C ,  6-H ) :   0.9313 
B(  2-S ,  3-C ) :   1.2427 B(  2-S ,  4-C ) :   0.1362 B(  3-C ,  4-C ) :   1.5139 
B(  3-C ,  7-H ) :   0.9313 B(  4-C ,  8-H ) :   0.9357 

-------
TIMINGS
-------

Total SCF time: 0 days 0 hours 0 min 15 sec 

Total time                  ....      15.194 sec
Sum of individual times     ....      15.028 sec  ( 98.9%)

Fock matrix formation       ....      13.506 sec  ( 88.9%)
  XC integration            ....       4.115 sec  ( 30.5% of F)
    Basis function eval.    ....       0.538 sec  ( 13.1% of XC)
    Density eval.           ....       0.770 sec  ( 18.7% of XC)
    XC-Functional eval.     ....       0.060 sec  (  1.5% of XC)
    XC-Potential eval.      ....       2.421 sec  ( 58.8% of XC)
Diagonalization             ....       0.460 sec  (  3.0%)
Density matrix formation    ....       0.030 sec  (  0.2%)
Population analysis         ....       0.045 sec  (  0.3%)
Initial guess               ....       0.275 sec  (  1.8%)
Orbital Transformation      ....       0.000 sec  (  0.0%)
Orbital Orthonormalization  ....       0.000 sec  (  0.0%)
DIIS solution               ....       0.132 sec  (  0.9%)
Grid generation             ....       0.580 sec  (  3.8%)

-------------------------   --------------------
FINAL SINGLE POINT ENERGY      -551.861479211020
-------------------------   --------------------



           ************************************************************
           *        Program running with 4 parallel MPI-processes     *
           *              working on a common directory               *
           ************************************************************
------------------------------------------------------------------------------
                         ORCA SCF GRADIENT CALCULATION
------------------------------------------------------------------------------

Gradient of the Kohn-Sham DFT energy:
Kohn-Sham wavefunction type      ... UKS
Hartree-Fock exchange scaling    ...    0.250
Number of operators              ...    2
Number of atoms                  ...    9
Basis set dimensions             ...  210
Integral neglect threshold       ... 2.5e-11
Integral primitive cutoff        ... 2.5e-12

Nuclear repulsion gradient       ... done
One Electron Gradient            ... done
Pre-screening matrix             ... done
RI-JK gradient (InCore)          ... done
Exchange-correlation gradient    ... done

------------------
CARTESIAN GRADIENT
------------------

   1   C   :    0.008476886   -0.034696365    0.030990803
   2   C   :   -0.000076011   -0.007449211    0.006679768
   3   S   :   -0.015937795   -0.000095896    0.000017320
   4   C   :   -0.000195929    0.007507609   -0.006720828
   5   C   :    0.008879069    0.034729687   -0.030937733
   6   H   :   -0.000668356   -0.000604352    0.000521338
   7   H   :    0.000116660   -0.000674021    0.000569822
   8   H   :    0.000069252    0.000685367   -0.000569866
   9   H   :   -0.000663775    0.000597181   -0.000550624

Difference to translation invariance:
           :   -0.0000000000   -0.0000000000   -0.0000000002

Norm of the cartesian gradient     ...    0.0702690853
RMS gradient                       ...    0.0135232918
MAX gradient                       ...    0.0347296871

-------
TIMINGS
-------

Total SCF gradient time            ...        3.452 sec

One electron gradient       ....       0.069 sec  (  2.0%)
Prescreening matrices       ....       0.339 sec  (  9.8%)
RI-JK gradient              ....       0.877 sec  ( 25.4%)
XC gradient                 ....       1.856 sec  ( 53.8%)
------------------------------------------------------------------------------
                         ORCA GEOMETRY RELAXATION STEP
------------------------------------------------------------------------------

Reading the OPT-File                    .... done
Getting information on internals        .... done
Copying old internal coords+grads       .... done
Making the new internal coordinates     .... (new redundants).... done
Validating the new internal coordinates .... (new redundants).... done
Calculating the B-matrix                .... done
Calculating the G,G- and P matrices     .... done
Transforming gradient to internals      .... done
Projecting the internal gradient        .... done
Number of atoms                         ....   9
Number of internal coordinates          ....  38
Current Energy                          ....  -551.861479211 Eh
Current gradient norm                   ....     0.070269085 Eh/bohr
Maximum allowed component of the step   ....  0.300
Current trust radius                    ....  0.300
Evaluating the initial hessian          ....  (Almloef) done
Projecting the Hessian                  .... done
Forming the augmented Hessian           .... done
Diagonalizing the augmented Hessian     .... done
Last element of RFO vector              ....  0.994587160
Lowest eigenvalues of augmented Hessian:
 -0.005992530  0.016569887  0.022661159  0.025030737  0.027048407
Length of the computed step             ....  0.104471124
The final length of the internal step   ....  0.104471124
Converting the step to cartesian space:
 Initial RMS(Int)=    0.0169474542
Transforming coordinates:
 Iter   0:  RMS(Cart)=    0.0259938176 RMS(Int)=    2.2790905697
 Iter   1:  RMS(Cart)=    0.0001804208 RMS(Int)=    0.0001453744
 Iter   2:  RMS(Cart)=    0.0000033442 RMS(Int)=    0.0000018515
 Iter   3:  RMS(Cart)=    0.0000000267 RMS(Int)=    0.0000000284
done
Storing new coordinates                 .... done

                                .--------------------.
          ----------------------|Geometry convergence|-------------------------
          Item                value                   Tolerance       Converged
          ---------------------------------------------------------------------
          RMS gradient        0.0093503754            0.0001000000      NO
          MAX gradient        0.0502467871            0.0003000000      NO
          RMS step            0.0169474542            0.0020000000      NO
          MAX step            0.0871656532            0.0040000000      NO
          ........................................................
          Max(Bonds)      0.0461      Max(Angles)    2.34
          Max(Dihed)        0.02      Max(Improp)    0.00
          ---------------------------------------------------------------------

The optimization has not yet converged - more geometry cycles are needed


    ---------------------------------------------------------------------------
                         Redundant Internal Coordinates
                            (Angstroem and degrees)

        Definition                    Value    dE/dq     Step     New-Value
    ----------------------------------------------------------------------------
     1. B(C   1,C   0)                1.3672  0.006287 -0.0047    1.3625   
     2. B(S   2,C   1)                1.6622 -0.000313  0.0000    1.6623   
     3. B(C   3,S   2)                1.6622 -0.000468  0.0002    1.6624   
     4. B(C   4,C   3)                1.3672  0.006429 -0.0049    1.3624   
     5. B(C   4,C   0)                1.4127 -0.050247  0.0461    1.4588   
     6. B(H   5,C   0)                1.0806 -0.001002  0.0014    1.0820   
     7. B(H   6,C   1)                1.0783 -0.000882  0.0012    1.0795   
     8. B(H   7,C   3)                1.0783 -0.000876  0.0012    1.0795   
     9. B(H   8,C   4)                1.0806 -0.001008  0.0014    1.0820   
    10. A(C   1,C   0,C   4)          111.75  0.000262    0.09    111.84   
    11. A(C   1,C   0,H   5)          123.74  0.000156   -0.09    123.65   
    12. A(C   4,C   0,H   5)          124.51 -0.000418    0.00    124.51   
    13. A(S   2,C   1,H   6)          121.31 -0.005096    0.64    121.95   
    14. A(C   0,C   1,S   2)          111.39  0.009943   -1.26    110.13   
    15. A(C   0,C   1,H   6)          127.30 -0.004847    0.62    127.92   
    16. A(C   1,S   2,C   3)           93.72 -0.020384    2.34     96.06   
    17. A(S   2,C   3,H   7)          121.28 -0.005152    0.65    121.92   
    18. A(S   2,C   3,C   4)          111.40  0.009948   -1.26    110.14   
    19. A(C   4,C   3,H   7)          127.33 -0.004796    0.61    127.94   
    20. A(C   3,C   4,H   8)          123.75  0.000181   -0.09    123.66   
    21. A(C   0,C   4,H   8)          124.51 -0.000413    0.00    124.51   
    22. A(C   0,C   4,C   3)          111.74  0.000231    0.09    111.83   
    23. D(S   2,C   1,C   0,C   4)     -0.01 -0.000004    0.01     -0.00   
    24. D(H   6,C   1,C   0,H   5)      0.01  0.000004   -0.01     -0.00   
    25. D(H   6,C   1,C   0,C   4)   -179.99  0.000011   -0.02   -180.01   
    26. D(S   2,C   1,C   0,H   5)    179.98 -0.000011    0.02    180.00   
    27. D(C   3,S   2,C   1,H   6)    179.99 -0.000009    0.01    180.00   
    28. D(C   3,S   2,C   1,C   0)      0.01  0.000005   -0.02     -0.00   
    29. D(C   4,C   3,S   2,C   1)     -0.01 -0.000008    0.02      0.01   
    30. D(H   7,C   3,S   2,C   1)    179.98 -0.000011    0.02    180.01   
    31. D(C   0,C   4,C   3,H   7)   -179.99  0.000012   -0.02   -180.01   
    32. D(C   0,C   4,C   3,S   2)      0.01  0.000009   -0.02     -0.01   
    33. D(H   8,C   4,C   0,H   5)     -0.02  0.000001   -0.00     -0.02   
    34. D(H   8,C   4,C   0,C   1)    179.98 -0.000006    0.01    179.98   
    35. D(C   3,C   4,C   0,H   5)   -179.99  0.000003   -0.01   -180.00   
    36. D(H   8,C   4,C   3,S   2)   -179.97  0.000011   -0.02   -179.99   
    37. D(C   3,C   4,C   0,C   1)      0.00 -0.000004    0.00      0.01   
    38. D(H   8,C   4,C   3,H   7)      0.04  0.000014   -0.02      0.02   
    ----------------------------------------------------------------------------

         *************************************************************
         *                GEOMETRY OPTIMIZATION CYCLE   2            *
         *************************************************************
---------------------------------
CARTESIAN COORDINATES (ANGSTROEM)
---------------------------------
  C     11.745382   10.851770    9.840269
  C     10.482024   11.230857    9.498878
  S      9.367166   10.309368   10.318119
  C     10.475457    9.386120   11.144471
  C     11.741504    9.763242   10.811438
  H     12.638581   11.308614    9.434997
  H     10.185704   12.005133    8.807477
  H     10.173059    8.612359   11.833832
  H     12.631423    9.304936   11.222219

----------------------------
CARTESIAN COORDINATES (A.U.)
----------------------------
  NO LB      ZA    FRAG     MASS         X           Y           Z
   0 C     6.0000    0    12.011   22.195555   20.506874   18.595414
   1 C     6.0000    0    12.011   19.808155   21.223245   17.950277
   2 S    16.0000    0    32.060   17.701378   19.481882   19.498418
   3 C     6.0000    0    12.011   19.795745   17.737196   21.059999
[...]
      dxz     :     0.049295
      dyz     :     0.026766
      dx2y2   :     0.031055
      dxy     :     0.054945
      f0      :     0.001940  f :     0.020322
      f+1     :     0.002925
      f-1     :     0.001734
      f+2     :     0.002920
      f-2     :     0.003869
      f+3     :     0.003201
      f-3     :     0.003733
  3 C s       :     3.243957  s :     3.243957
      pz      :     0.874414  p :     2.659367
      px      :     0.884409
      py      :     0.900544
      dz2     :     0.014878  d :     0.108111
      dxz     :     0.030654
      dyz     :     0.010938
      dx2y2   :     0.021064
      dxy     :     0.030577
      f0      :     0.000603  f :     0.007931
      f+1     :     0.001357
      f-1     :     0.000887
      f+2     :     0.001289
      f-2     :     0.001142
      f+3     :     0.001603
      f-3     :     0.001050
  4 C s       :     3.252141  s :     3.252141
      pz      :     0.879996  p :     2.694715
      px      :     0.930131
      py      :     0.884587
      dz2     :     0.016505  d :     0.096505
      dxz     :     0.025532
      dyz     :     0.008086
      dx2y2   :     0.017568
      dxy     :     0.028815
      f0      :     0.000825  f :     0.008828
      f+1     :     0.000900
      f-1     :     0.001350
      f+2     :     0.001279
      f-2     :     0.001627
      f+3     :     0.001691
      f-3     :     0.001156
  5 H s       :     0.770738  s :     0.770738
      pz      :     0.009924  p :     0.033149
      px      :     0.013426
      py      :     0.009799
      dz2     :     0.000378  d :     0.002300
      dxz     :     0.000430
      dyz     :     0.000295
      dx2y2   :     0.000760
      dxy     :     0.000438
  6 H s       :     0.745457  s :     0.745457
      pz      :     0.013146  p :     0.035778
      px      :     0.008827
      py      :     0.013806
      dz2     :     0.000478  d :     0.002330
      dxz     :     0.000430
      dyz     :     0.000464
      dx2y2   :     0.000435
      dxy     :     0.000523
  7 H s       :     0.745537  s :     0.745537
      pz      :     0.013151  p :     0.035804
      px      :     0.008833
      py      :     0.013820
      dz2     :     0.000478  d :     0.002331
      dxz     :     0.000426
      dyz     :     0.000466
      dx2y2   :     0.000441
      dxy     :     0.000520
  8 H s       :     0.770813  s :     0.770813
      pz      :     0.009953  p :     0.033164
      px      :     0.013395
      py      :     0.009816
      dz2     :     0.000382  d :     0.002301
      dxz     :     0.000426
      dyz     :     0.000299
      dx2y2   :     0.000760
      dxy     :     0.000434

SPIN
  0 C s       :     0.003912  s :     0.003912
      pz      :     0.025847  p :     0.038534
      px      :    -0.006918
      py      :     0.019605
      dz2     :     0.003049  d :     0.009479
      dxz     :     0.003203
      dyz     :    -0.000220
      dx2y2   :     0.000890
      dxy     :     0.002558
      f0      :     0.000098  f :     0.000643
      f+1     :     0.000148
      f-1     :    -0.000073
      f+2     :     0.000144
      f-2     :    -0.000010
      f+3     :     0.000096
      f-3     :     0.000240
  1 C s       :     0.018725  s :     0.018725
      pz      :     0.266231  p :     0.494116
      px      :     0.011647
      py      :     0.216238
      dz2     :    -0.000852  d :     0.000967
      dxz     :     0.001902
      dyz     :    -0.001786
      dx2y2   :     0.000091
      dxy     :     0.001612
      f0      :    -0.000168  f :    -0.000993
      f+1     :    -0.000058
      f-1     :    -0.000292
      f+2     :    -0.000158
      f-2     :    -0.000250
      f+3     :    -0.000077
      f-3     :     0.000012
  2 S s       :    -0.004028  s :    -0.004028
      pz      :    -0.061862  p :    -0.129671
      px      :    -0.014203
      py      :    -0.053606
      dz2     :     0.022782  d :     0.031406
      dxz     :     0.000633
      dyz     :     0.000059
      dx2y2   :     0.007304
      dxy     :     0.000628
      f0      :     0.000005  f :     0.003941
      f+1     :     0.002084
      f-1     :     0.000233
      f+2     :     0.000138
      f-2     :     0.000177
      f+3     :     0.001266
      f-3     :     0.000037
  3 C s       :     0.018688  s :     0.018688
      pz      :     0.266354  p :     0.493916
      px      :     0.011610
      py      :     0.215952
      dz2     :    -0.000856  d :     0.000975
      dxz     :     0.001911
      dyz     :    -0.001782
      dx2y2   :     0.000085
      dxy     :     0.001617
      f0      :    -0.000168  f :    -0.000992
      f+1     :    -0.000060
      f-1     :    -0.000291
      f+2     :    -0.000157
      f-2     :    -0.000250
      f+3     :    -0.000078
      f-3     :     0.000012
  4 C s       :     0.003962  s :     0.003962
      pz      :     0.026149  p :     0.039068
      px      :    -0.006916
      py      :     0.019835
      dz2     :     0.002960  d :     0.009482
      dxz     :     0.003269
      dyz     :    -0.000220
      dx2y2   :     0.000901
      dxy     :     0.002572
      f0      :     0.000103  f :     0.000640
      f+1     :     0.000139
      f-1     :    -0.000074
      f+2     :     0.000145
      f-2     :    -0.000009
      f+3     :     0.000096
      f-3     :     0.000241
  5 H s       :    -0.002748  s :    -0.002748
      pz      :     0.000280  p :     0.000368
      px      :    -0.000156
      py      :     0.000244
      dz2     :     0.000001  d :     0.000055
      dxz     :     0.000033
      dyz     :    -0.000001
      dx2y2   :    -0.000008
      dxy     :     0.000029
  6 H s       :    -0.021257  s :    -0.021257
      pz      :     0.003699  p :     0.006673
      px      :    -0.000079
      py      :     0.003052
      dz2     :     0.000311  d :     0.000541
      dxz     :     0.000032
      dyz     :     0.000040
      dx2y2   :     0.000125
      dxy     :     0.000032
  7 H s       :    -0.021251  s :    -0.021251
      pz      :     0.003699  p :     0.006665
      px      :    -0.000074
      py      :     0.003040
      dz2     :     0.000309  d :     0.000540
      dxz     :     0.000034
      dyz     :     0.000040
      dx2y2   :     0.000125
      dxy     :     0.000032
  8 H s       :    -0.002785  s :    -0.002785
      pz      :     0.000282  p :     0.000373
      px      :    -0.000156
      py      :     0.000247
      dz2     :     0.000001  d :     0.000055
      dxz     :     0.000033
      dyz     :    -0.000000
      dx2y2   :    -0.000008
      dxy     :     0.000030


                     *******************************
                     * LOEWDIN POPULATION ANALYSIS *
                     *******************************

-------------------------------------------
LOEWDIN ATOMIC CHARGES AND SPIN POPULATIONS
-------------------------------------------
   0 C :    0.088315    0.086686
   1 C :   -0.003430    0.400514
   2 S :    0.821223   -0.020927
   3 C :   -0.003490    0.400376
   4 C :    0.088191    0.087032
   5 H :    0.009121    0.001785
   6 H :   -0.004544    0.021371
   7 H :   -0.004533    0.021363
   8 H :    0.009147    0.001799

----------------------------------------------------
LOEWDIN REDUCED ORBITAL CHARGES AND SPIN POPULATIONS
----------------------------------------------------
CHARGE
  0 C s       :     2.714399  s :     2.714399
      pz      :     0.876324  p :     2.753948
      px      :     0.974821
      py      :     0.902803
      dz2     :     0.057087  d :     0.397037
      dxz     :     0.090342
      dyz     :     0.053093
      dx2y2   :     0.091265
      dxy     :     0.105249
      f0      :     0.004752  f :     0.046300
      f+1     :     0.005376
      f-1     :     0.004801
      f+2     :     0.006067
      f-2     :     0.008818
      f+3     :     0.009895
      f-3     :     0.006593
  1 C s       :     2.783042  s :     2.783042
      pz      :     0.839193  p :     2.744140
      px      :     1.029759
      py      :     0.875188
      dz2     :     0.048603  d :     0.434825
      dxz     :     0.115957
      dyz     :     0.051129
      dx2y2   :     0.096864
      dxy     :     0.122272
      f0      :     0.003353  f :     0.041423
      f+1     :     0.008177
      f-1     :     0.002515
      f+2     :     0.005303
      f-2     :     0.006343
      f+3     :     0.009160
      f-3     :     0.006571
  2 S s       :     5.277673  s :     5.277673
      pz      :     3.139963  p :     9.497590
      px      :     3.268483
      py      :     3.089144
      dz2     :     0.052347  d :     0.339698
      dxz     :     0.078047
      dyz     :     0.059502
      dx2y2   :     0.059708
      dxy     :     0.090095
      f0      :     0.005232  f :     0.063816
      f+1     :     0.009363
      f-1     :     0.003673
      f+2     :     0.009313
      f-2     :     0.012467
      f+3     :     0.010900
      f-3     :     0.012869
  3 C s       :     2.782988  s :     2.782988
      pz      :     0.838888  p :     2.744138
      px      :     1.030012
      py      :     0.875238
      dz2     :     0.048672  d :     0.434926
      dxz     :     0.116302
      dyz     :     0.050990
      dx2y2   :     0.096362
      dxy     :     0.122600
      f0      :     0.003410  f :     0.041437
      f+1     :     0.008091
      f-1     :     0.002542
      f+2     :     0.005361
      f-2     :     0.006301
      f+3     :     0.009109
      f-3     :     0.006624
  4 C s       :     2.714373  s :     2.714373
      pz      :     0.876384  p :     2.753988
      px      :     0.974735
      py      :     0.902870
      dz2     :     0.056904  d :     0.397131
      dxz     :     0.090497
      dyz     :     0.053057
      dx2y2   :     0.091302
      dxy     :     0.105370
      f0      :     0.004779  f :     0.046316
      f+1     :     0.005332
      f-1     :     0.004813
      f+2     :     0.006093
      f-2     :     0.008775
      f+3     :     0.009893
      f-3     :     0.006630
  5 H s       :     0.807398  s :     0.807398
      pz      :     0.042298  p :     0.155270
      px      :     0.068915
      py      :     0.044057
      dz2     :     0.004060  d :     0.028212
      dxz     :     0.006734
      dyz     :     0.002816
      dx2y2   :     0.007416
      dxy     :     0.007186
  6 H s       :     0.814062  s :     0.814062
      pz      :     0.058730  p :     0.161712
      px      :     0.037482
      py      :     0.065501
      dz2     :     0.005571  d :     0.028769
      dxz     :     0.004206
      dyz     :     0.008721
      dx2y2   :     0.005112
      dxy     :     0.005159
  7 H s       :     0.814057  s :     0.814057
      pz      :     0.058576  p :     0.161707
      px      :     0.037668
      py      :     0.065463
      dz2     :     0.005554  d :     0.028770
      dxz     :     0.004208
      dyz     :     0.008690
      dx2y2   :     0.005136
      dxy     :     0.005182
  8 H s       :     0.807374  s :     0.807374
      pz      :     0.042528  p :     0.155267
      px      :     0.068570
      py      :     0.044168
      dz2     :     0.004091  d :     0.028212
      dxz     :     0.006722
      dyz     :     0.002870
      dx2y2   :     0.007377
      dxy     :     0.007153

SPIN
  0 C s       :     0.000164  s :     0.000164
      pz      :     0.027784  p :     0.045530
      px      :    -0.004241
      py      :     0.021987
      dz2     :     0.012639  d :     0.035987
      dxz     :     0.010133
      dyz     :     0.000329
      dx2y2   :     0.004683
      dxy     :     0.008203
      f0      :     0.001191  f :     0.005005
      f+1     :     0.000909
      f-1     :     0.000175
      f+2     :     0.000635
      f-2     :    -0.000023
      f+3     :     0.000551
      f-3     :     0.001569
  1 C s       :     0.011591  s :     0.011591
      pz      :     0.214725  p :     0.393871
      px      :     0.006716
      py      :     0.172430
      dz2     :    -0.002609  d :    -0.003801
      dxz     :     0.001383
      dyz     :    -0.002064
      dx2y2   :    -0.001464
      dxy     :     0.000952
      f0      :     0.000051  f :    -0.001147
      f+1     :    -0.000118
      f-1     :    -0.000297
      f+2     :    -0.000416
      f-2     :    -0.000254
      f+3     :    -0.000144
      f-3     :     0.000031
  2 S s       :    -0.001141  s :    -0.001141
      pz      :    -0.045940  p :    -0.093247
      px      :    -0.008063
      py      :    -0.039244
      dz2     :     0.039661  d :     0.061024
      dxz     :     0.003665
      dyz     :     0.000793
      dx2y2   :     0.013280
      dxy     :     0.003624
      f0      :     0.000082  f :     0.012438
      f+1     :     0.006537
      f-1     :     0.000498
      f+2     :     0.000455
      f-2     :     0.000562
      f+3     :     0.004034
      f-3     :     0.000269
  3 C s       :     0.011582  s :     0.011582
      pz      :     0.214841  p :     0.393708
      px      :     0.006682
      py      :     0.172184
      dz2     :    -0.002610  d :    -0.003771
      dxz     :     0.001400
      dyz     :    -0.002056
      dx2y2   :    -0.001464
      dxy     :     0.000959
      f0      :     0.000052  f :    -0.001143
      f+1     :    -0.000121
      f-1     :    -0.000298
      f+2     :    -0.000413
      f-2     :    -0.000255
      f+3     :    -0.000143
      f-3     :     0.000034
  4 C s       :     0.000182  s :     0.000182
      pz      :     0.028010  p :     0.045888
      px      :    -0.004259
      py      :     0.022136
      dz2     :     0.012356  d :     0.035962
      dxz     :     0.010318
      dyz     :     0.000337
      dx2y2   :     0.004712
      dxy     :     0.008240
      f0      :     0.001226  f :     0.005000
      f+1     :     0.000857
      f-1     :     0.000174
      f+2     :     0.000641
      f-2     :    -0.000022
      f+3     :     0.000545
      f-3     :     0.001579
  5 H s       :    -0.001592  s :    -0.001592
      pz      :     0.001552  p :     0.002779
      px      :     0.000004
      py      :     0.001223
      dz2     :     0.000058  d :     0.000598
      dxz     :     0.000322
      dyz     :    -0.000021
      dx2y2   :    -0.000020
      dxy     :     0.000259
  6 H s       :    -0.009851  s :    -0.009851
      pz      :     0.013811  p :     0.025732
      px      :     0.000327
      py      :     0.011594
      dz2     :     0.003556  d :     0.005489
      dxz     :     0.000243
      dyz     :     0.000159
      dx2y2   :     0.001299
      dxy     :     0.000232
  7 H s       :    -0.009847  s :    -0.009847
      pz      :     0.013808  p :     0.025722
      px      :     0.000336
      py      :     0.011578
      dz2     :     0.003534  d :     0.005488
      dxz     :     0.000258
      dyz     :     0.000160
      dx2y2   :     0.001299
      dxy     :     0.000236
  8 H s       :    -0.001609  s :    -0.001609
      pz      :     0.001567  p :     0.002805
      px      :     0.000004
      py      :     0.001233
      dz2     :     0.000063  d :     0.000604
      dxz     :     0.000322
      dyz     :    -0.000021
      dx2y2   :    -0.000021
      dxy     :     0.000261


                      *****************************
                      * MAYER POPULATION ANALYSIS *
                      *****************************

  NA   - Mulliken gross atomic population
  ZA   - Total nuclear charge
  QA   - Mulliken gross atomic charge
  VA   - Mayer's total valence
  BVA  - Mayer's bonded valence
  FA   - Mayer's free valence

  ATOM       NA         ZA         QA         VA         BVA        FA
  0 C      6.0522     6.0000    -0.0522     3.8433     3.8375     0.0058
  1 C      6.0196     6.0000    -0.0196     3.8427     3.6280     0.2147
  2 S     15.6769    16.0000     0.3231     2.8148     2.8044     0.0104
  3 C      6.0194     6.0000    -0.0194     3.8428     3.6282     0.2146
  4 C      6.0522     6.0000    -0.0522     3.8436     3.8378     0.0058
  5 H      0.8062     1.0000     0.1938     0.9793     0.9793     0.0000
  6 H      0.7836     1.0000     0.2164     0.9686     0.9681     0.0005
  7 H      0.7837     1.0000     0.2163     0.9687     0.9682     0.0005
  8 H      0.8063     1.0000     0.1937     0.9793     0.9793     0.0000

  Mayer bond orders larger than 0.1
B(  0-C ,  1-C ) :   1.2222 B(  0-C ,  4-C ) :   1.5066 B(  0-C ,  5-H ) :   0.9390 
B(  1-C ,  2-S ) :   1.2846 B(  1-C ,  3-C ) :   0.1087 B(  1-C ,  6-H ) :   0.9321 
B(  2-S ,  3-C ) :   1.2848 B(  3-C ,  4-C ) :   1.2223 B(  3-C ,  7-H ) :   0.9321 
B(  4-C ,  8-H ) :   0.9391 

-------
TIMINGS
-------

Total SCF time: 0 days 0 hours 0 min 6 sec 

Total time                  ....       6.004 sec
Sum of individual times     ....       5.909 sec  ( 98.4%)

Fock matrix formation       ....       5.188 sec  ( 86.4%)
  XC integration            ....       1.699 sec  ( 32.7% of F)
    Basis function eval.    ....       0.233 sec  ( 13.7% of XC)
    Density eval.           ....       0.338 sec  ( 19.9% of XC)
    XC-Functional eval.     ....       0.028 sec  (  1.6% of XC)
    XC-Potential eval.      ....       1.007 sec  ( 59.3% of XC)
Diagonalization             ....       0.173 sec  (  2.9%)
Density matrix formation    ....       0.008 sec  (  0.1%)
Population analysis         ....       0.042 sec  (  0.7%)
Initial guess               ....       0.025 sec  (  0.4%)
Orbital Transformation      ....       0.000 sec  (  0.0%)
Orbital Orthonormalization  ....       0.019 sec  (  0.3%)
DIIS solution               ....       0.036 sec  (  0.6%)
Grid generation             ....       0.437 sec  (  7.3%)

-------------------------   --------------------
FINAL SINGLE POINT ENERGY      -551.882465398429
-------------------------   --------------------

                                *** OPTIMIZATION RUN DONE ***

                            ***************************************
                            *     ORCA property calculations      *
                            ***************************************

                                    ---------------------
                                    Active property flags
                                    ---------------------
   (+) Dipole Moment


------------------------------------------------------------------------------
                       ORCA ELECTRIC PROPERTIES CALCULATION
------------------------------------------------------------------------------

Dipole Moment Calculation                       ... on
Quadrupole Moment Calculation                   ... off
Polarizability Calculation                      ... off
GBWName                                         ... system.gbw
Electron density file                           ... system.scfp.tmp
The origin for moment calculation is the CENTER OF MASS  = (19.723103, 19.481035 19.504696)

-------------
DIPOLE MOMENT
-------------
                                X             Y             Z
Electronic contribution:     -3.19399       0.00471      -0.01090
Nuclear contribution   :      3.71810      -0.00544       0.01248
                        -----------------------------------------
Total Dipole Moment    :      0.52411      -0.00074       0.00158
                        -----------------------------------------
Magnitude (a.u.)       :      0.52411
Magnitude (Debye)      :      1.33219


Timings for individual modules:

Sum of individual times         ...      549.013 sec (=   9.150 min)
GTO integral calculation        ...       18.784 sec (=   0.313 min)   3.4 %
SCF iterations                  ...      410.287 sec (=   6.838 min)  74.7 %
SCF Gradient evaluation         ...      118.754 sec (=   1.979 min)  21.6 %
Geometry relaxation             ...        1.187 sec (=   0.020 min)   0.2 %
                             ****ORCA TERMINATED NORMALLY****
TOTAL RUN TIME: 0 days 0 hours 9 minutes 9 seconds 931 msec
