2
Properties=species:S:1:pos:R:3:forces:R:3 energy=-113.23097908157523 pbc="F F F"
O        0.00050933      -0.00013944       0.47951047      -0.00000183       0.00000017       0.00206576
C        0.00151041      -0.00023297      -0.64343091       0.00000183      -0.00000017      -0.00206576
