
                                 *****************
                                 * O   R   C   A *
                                 *****************

           --- An Ab Initio, DFT and Semiempirical electronic structure package ---

                  #######################################################
                  #                        -***-                        #
                  #  Department of molecular theory and spectroscopy    #
                  #              Directorship: Frank Neese              #
                  # Max Planck Institute for Chemical Energy Conversion #
                  #                  D-45470 Muelheim/Ruhr              #
                  #                       Germany                       #
                  #                                                     #
                  #                  All rights reserved                #
                  #                        -***-                        #
                  #######################################################


                         Program Version 4.0.1 -  RELEASE  -


 With contributions from (in alphabetic order):
   Daniel Aravena         : Magnetic Properties
   Michael Atanasov       : Ab Initio Ligand Field Theory
   Ute Becker             : Parallelization
   Martin Brehm           : Molecular dynamics
   Dmytro Bykov           : SCF Hessian
   Vijay G. Chilkuri      : MRCI spin determinant printing
   Dipayan Datta          : RHF DLPNO-CCSD density
   Achintya Kumar Dutta   : EOM-CC, STEOM-CC
   Dmitry Ganyushin       : Spin-Orbit,Spin-Spin,Magnetic field MRCI
   Yang Guo               : DLPNO-NEVPT2, CIM, IAO-localization
   Andreas Hansen         : Spin unrestricted coupled pair/coupled cluster methods
   Lee Huntington         : MR-EOM, pCC
   Robert Izsak           : Overlap fitted RIJCOSX, COSX-SCS-MP3, EOM
   Christian Kollmar      : KDIIS, OOCD, Brueckner-CCSD(T), CCSD density
   Simone Kossmann        : Meta GGA functionals, TD-DFT gradient, OOMP2, MP2 Hessian
   Martin Krupicka        : AUTO-CI
   Dagmar Lenk            : GEPOL surface
   Dimitrios Liakos       : Extrapolation schemes; parallel MDCI
   Dimitrios Manganas     : ROCIS; embedding schemes
   Dimitrios Pantazis     : SARC Basis sets
   Taras Petrenko         : DFT Hessian,TD-DFT gradient, ASA, ECA, R-Raman, ABS, FL, XAS/XES, NRVS
   Peter Pinski           : DLPNO-MP2
   Christoph Reimann      : Effective Core Potentials
   Marius Retegan         : Local ZFS, SOC
   Christoph Riplinger    : Optimizer, TS searches, QM/MM, DLPNO-CCSD(T), (RO)-DLPNO pert. Triples
   Tobias Risthaus        : Range-separated hybrids, TD-DFT gradient, RPA, STAB
   Michael Roemelt        : Restricted open shell CIS
   Masaaki Saitow         : Open-shell DLPNO
   Barbara Sandhoefer     : DKH picture change effects
   Kantharuban Sivalingam : CASSCF convergence, NEVPT2, FIC-MRCI
   Georgi Stoychev        : AutoAux
   Boris Wezisla          : Elementary symmetry handling
   Frank Wennmohs         : Technical directorship


 We gratefully acknowledge several colleagues who have allowed us to
 interface, adapt or use parts of their codes:
   Stefan Grimme, W. Hujo, H. Kruse,             : VdW corrections, initial TS optimization,
                  C. Bannwarth                     DFT functionals, gCP, sTDA/sTD-DF
   Ed Valeev                                     : LibInt (2-el integral package), F12 methods
   Garnet Chan, S. Sharma, J. Yang, R. Olivares  : DMRG
   Ulf Ekstrom                                   : XCFun DFT Library
   Mihaly Kallay                                 : mrcc  (arbitrary order and MRCC methods)
   Andreas Klamt, Michael Diedenhofen            : otool_cosmo (COSMO solvation model)
   Jiri Pittner, Ondrej Demel                    : Mk-CCSD
   Frank Weinhold                                : gennbo (NPA and NBO analysis)
   Christopher J. Cramer and Donald G. Truhlar   : smd solvation model


 Your calculation uses the libint2 library for the computation of 2-el integrals
 For citations please refer to: http://libint.valeyev.net

 This ORCA versions uses:
   CBLAS   interface :  Fast vector & matrix operations
   LAPACKE interface :  Fast linear algebra routines
   SCALAPACK package :  Parallel linear algebra routines


Your calculation utilizes the basis: cc-pVTZ 
       H, B-Ne : Obtained from the ccRepo (grant-hill.group.shef.ac.uk/ccrepo) Feb. 2017
                 T. H. Dunning, Jr., J. Chem. Phys. 90, 1007 (1989)
            He : Obtained from the ccRepo (grant-hill.group.shef.ac.uk/ccrepo) Feb. 2017
                 D. E. Woon, T. H. Dunning, Jr., J. Chem. Phys. 100, 2975 (1994)
  Li-Be, Na-Mg : Obtained from the ccRepo (grant-hill.group.shef.ac.uk/ccrepo) Feb. 2017
                 B. P. Prascher, D. E. Woon, K. A. Peterson, T. H. Dunning, Jr., A. K. Wilson, Theor. Chem. Acc. 128, 69 (2011)
         Al-Ar : Obtained from the ccRepo (grant-hill.group.shef.ac.uk/ccrepo) Feb. 2017
                 D. E. Woon, T. H. Dunning, Jr., J. Chem. Phys. 98, 1358 (1993)
            Ca : Obtained from the Peterson Research Group Website (tyr0.chem.wsu.edu/~kipeters) Feb. 2017
                 J. Koput, K. A. Peterson, J. Phys. Chem. 106, 9595 (2002)
         Sc-Zn : Obtained from the ccRepo (grant-hill.group.shef.ac.uk/ccrepo) Feb. 2017
                 N. B. Balabanov, K. A. Peterson, J. Chem. Phys. 123, 064107 (2005)
                 N. B. Balabanov, K. A. Peterson, J. Chem. Phys. 125, 074110 (2006)
         Ga-Kr : Obtained from the ccRepo (grant-hill.group.shef.ac.uk/ccrepo) Feb. 2017
                 A. K. Wilson, D. E. Woon, K. A. Peterson, T. H. Dunning, Jr., J. Chem. Phys. 110, 7667 (1999)
             Y : Obtained from the ccRepo (grant-hill.group.shef.ac.uk/ccrepo) Feb. 2017
                 K. A. Peterson, D. Figgen, M. Dolg, H. Stoll, J. Chem. Phys. 126, 124101 (2007)
        Ag, Au : Obtained from the Peterson Research Group Website (tyr0.chem.wsu.edu/~kipeters) Feb. 2017
                 K. A. Peterson, C. Puzzarini, Theor. Chem. Acc. 114, 283 (2005)

Your calculation utilizes the auxiliary basis: def2/J
   F. Weigend, Phys. Chem. Chem. Phys. 8, 1057 (2006).

================================================================================
                                        WARNINGS
                       Please study these warnings very carefully!
================================================================================

Warning: TCutStore was < 0. Adjusted to Thresh (uncritical)

WARNING: your system is open-shell and RHF/RKS was chosen
  ===> : WILL SWITCH to UHF/UKS


INFO   : the flag for use of LIBINT has been found!

================================================================================
                                       INPUT FILE
================================================================================
NAME = system.inp
|  1> * xyz  -1 2
|  2>   C   11.76426199334684     10.82280804908371      9.86349126054707
|  3>   C   10.46873492179135     11.23230879285747      9.48989890750860
|  4>   S   9.28239458366763     10.30942579668436     10.31782415470981
|  5>   C   10.46191892550494      9.38467502475006     11.15334170097282
|  6>   C   11.76045256336994      9.79216063367196     10.78815831931798
|  7>   H   12.66606336848248     11.27495060605222      9.46384041960820
|  8>   H   10.19501442746319     12.01707356566945      8.80256846612740
|  9>   H   10.18251878958796      8.60039130615951     11.83894147233342
| 10>   H   12.65894042678567      9.33860622507127     11.19363529887472
| 11> * 
| 12> 
| 13> %pal
| 14>  nprocs 4
| 15> end
| 16> 
| 17> %elprop
| 18> Polar 1
| 19> end
| 20> 
| 21> ! DFT  PBE0 RIJK cc-pVTZ CHELPG
| 22> 
| 23> 
| 24>                          ****END OF INPUT****
================================================================================

                       ****************************
                       * Single Point Calculation *
                       ****************************

---------------------------------
CARTESIAN COORDINATES (ANGSTROEM)
---------------------------------
  C     11.764262   10.822808    9.863491
  C     10.468735   11.232309    9.489899
  S      9.282395   10.309426   10.317824
  C     10.461919    9.384675   11.153342
  C     11.760453    9.792161   10.788158
  H     12.666063   11.274951    9.463840
  H     10.195014   12.017074    8.802568
  H     10.182519    8.600391   11.838941
  H     12.658940    9.338606   11.193635

----------------------------
CARTESIAN COORDINATES (A.U.)
----------------------------
  NO LB      ZA    FRAG     MASS         X           Y           Z
   0 C     6.0000    0    12.011   22.231233   20.452143   18.639297
   1 C     6.0000    0    12.011   19.783042   21.225987   17.933310
   2 S    16.0000    0    32.060   17.541184   19.481991   19.497862
   3 C     6.0000    0    12.011   19.770162   17.734466   21.076761
   4 C     6.0000    0    12.011   22.224035   18.504502   20.386665
   5 H     1.0000    0     1.008   23.935391   21.306569   17.884067
   6 H     1.0000    0     1.008   19.265785   22.708978   16.634444
   7 H     1.0000    0     1.008   19.242172   16.252384   22.372357
   8 H     1.0000    0     1.008   23.921931   17.647408   21.152905

--------------------------------
INTERNAL COORDINATES (ANGSTROEM)
--------------------------------
 C      0   0   0     0.000000000000     0.00000000     0.00000000
 C      1   0   0     1.409131824399     0.00000000     0.00000000
 S      2   1   0     1.715976875555   110.57321702     0.00000000
 C      3   2   1     1.715963645679    92.83944571   359.94595692
 C      1   2   3     1.384650777715   113.00596641     0.14854960
 H      1   2   3     1.085080368766   123.04845627   180.22805383
 H      2   1   3     1.078518332395   127.86085605   178.94687495
 H      4   3   2     1.078523265250   121.55617846   180.91776865
 H      5   1   2     1.085082311724   123.94473450   179.72796467

---------------------------
INTERNAL COORDINATES (A.U.)
---------------------------
 C      0   0   0     0.000000000000     0.00000000     0.00000000
 C      1   0   0     2.662873234706     0.00000000     0.00000000
 S      2   1   0     3.242726346940   110.57321702     0.00000000
 C      3   2   1     3.242701346099    92.83944571   359.94595692
 C      1   2   3     2.616610761003   113.00596641     0.14854960
 H      1   2   3     2.050504730262   123.04845627   180.22805383
 H      2   1   3     2.038104278639   127.86085605   178.94687495
 H      4   3   2     2.038113600386   121.55617846   180.91776865
 H      5   1   2     2.050508401921   123.94473450   179.72796467

---------------------
BASIS SET INFORMATION
---------------------
There are 3 groups of distinct atoms

 Group   1 Type C   : 18s5p2d1f contracted to 4s3p2d1f pattern {8811/311/11/1}
 Group   2 Type S   : 41s16p2d1f contracted to 5s4p2d1f pattern {13131311/7711/11/1}
 Group   3 Type H   : 5s2p1d contracted to 3s2p1d pattern {311/11/1}

Atom   0C    basis set group =>   1
Atom   1C    basis set group =>   1
Atom   2S    basis set group =>   2
Atom   3C    basis set group =>   1
Atom   4C    basis set group =>   1
Atom   5H    basis set group =>   3
Atom   6H    basis set group =>   3
Atom   7H    basis set group =>   3
Atom   8H    basis set group =>   3
-------------------------------
AUXILIARY BASIS SET INFORMATION
-------------------------------
There are 3 groups of distinct atoms

 Group   1 Type C   : 12s5p4d2f1g contracted to 6s4p3d1f1g pattern {711111/2111/211/2/1}
 Group   2 Type S   : 14s5p5d2f1g contracted to 8s4p3d1f1g pattern {71111111/2111/311/2/1}
 Group   3 Type H   : 5s2p1d contracted to 3s1p1d pattern {311/2/1}

Atom   0C    basis set group =>   1
Atom   1C    basis set group =>   1
Atom   2S    basis set group =>   2
Atom   3C    basis set group =>   1
Atom   4C    basis set group =>   1
Atom   5H    basis set group =>   3
Atom   6H    basis set group =>   3
Atom   7H    basis set group =>   3
Atom   8H    basis set group =>   3


           ************************************************************
           *        Program running with 4 parallel MPI-processes     *
           *              working on a common directory               *
           ************************************************************
------------------------------------------------------------------------------
                           ORCA GTO INTEGRAL CALCULATION
                           -- RI-GTO INTEGRALS CHOSEN --
------------------------------------------------------------------------------

                         BASIS SET STATISTICS AND STARTUP INFO

Gaussian basis set:
 # of primitive gaussian shells          ...  196
 # of primitive gaussian functions       ...  370
 # of contracted shells                  ...   76
 # of contracted basis functions         ...  210
 Highest angular momentum                ...    3
 Maximum contraction depth               ...   13
Auxiliary gaussian basis set:
 # of primitive gaussian shells          ...  155
 # of primitive gaussian functions       ...  421
 # of contracted shells                  ...   97
 # of contracted aux-basis functions     ...  291
 Highest angular momentum                ...    4
 Maximum contraction depth               ...    7
Ratio of auxiliary to basis functions    ...  1.39
Integral package used                  ... LIBINT
 One Electron integrals                  ... done
 Ordering auxiliary basis shells         ... done
 Integral threshhold             Thresh  ...  1.000e-10
 Primitive cut-off               TCut    ...  1.000e-11
 Pre-screening matrix                    ... done
 Shell pair data                         ... 
 Ordering of the shell pairs             ... done (   0.000 sec) 2899 of 2926 pairs
 Determination of significant pairs      ... done (   0.000 sec)
 Creation of shell pair data             ... done (   0.001 sec)
 Storage of shell pair data              ... done (   0.001 sec)
 Shell pair data done in (   0.002 sec)
 Computing two index integrals           ... done
 Cholesky decomposition of the V-matrix  ... done


Timings:
 Total evaluation time                   ...   0.258 sec (  0.004 min)
 One electron matrix time                ...   0.020 sec (  0.000 min) =  7.6%
 Schwartz matrix evaluation time         ...   0.217 sec (  0.004 min) = 84.2%
 Two index repulsion integral time       ...   0.003 sec (  0.000 min) =  1.2%
 Cholesky decomposition of V             ...   0.001 sec (  0.000 min) =  0.4%
 Three index repulsion integral time     ...   0.000 sec (  0.000 min) =  0.0%



           ************************************************************
           *        Program running with 4 parallel MPI-processes     *
           *              working on a common directory               *
           ************************************************************
-------------------------------------------------------------------------------
                                 ORCA SCF
-------------------------------------------------------------------------------

------------
SCF SETTINGS
------------
Hamiltonian:
 Density Functional     Method          .... DFT(GTOs)
 Exchange Functional    Exchange        .... PBE
   PBE kappa parameter   XKappa         ....  0.804000
   PBE mue parameter    XMuePBE         ....  0.219520
 Correlation Functional Correlation     .... PBE
   PBE beta parameter  CBetaPBE         ....  0.066725
 LDA part of GGA corr.  LDAOpt          .... PW91-LDA
 Gradients option       PostSCFGGA      .... off
 Hybrid DFT is turned on
   Fraction HF Exchange ScalHFX         ....  0.250000
   Scaling of DF-GGA-X  ScalDFX         ....  0.750000
   Scaling of DF-GGA-C  ScalDFC         ....  1.000000
   Scaling of DF-LDA-C  ScalLDAC        ....  1.000000
   Perturbative correction              ....  0.000000
   NL short-range parameter             ....  6.900000
 RI-approximation to the Coulomb term is turned on
   Number of auxiliary basis functions  .... 291
   RI-JK (J+K treated both via RI)      .... on


General Settings:
 Integral files         IntName         .... system
 Hartree-Fock type      HFTyp           .... UHF
 Total Charge           Charge          ....   -1
 Multiplicity           Mult            ....    2
 Number of Electrons    NEL             ....   45
 Basis Dimension        Dim             ....  210
 Nuclear Repulsion      ENuc            ....    201.9486360300 Eh

Convergence Acceleration:
 DIIS                   CNVDIIS         .... on
   Start iteration      DIISMaxIt       ....    12
   Startup error        DIISStart       ....  0.200000
   # of expansion vecs  DIISMaxEq       ....     5
   Bias factor          DIISBfac        ....   1.050
   Max. coefficient     DIISMaxC        ....  10.000
 Newton-Raphson         CNVNR           .... off
 SOSCF                  CNVSOSCF        .... off
 Level Shifting         CNVShift        .... on
   Level shift para.    LevelShift      ....    0.2500
   Turn off err/grad.   ShiftErr        ....    0.0010
 Zerner damping         CNVZerner       .... off
 Static damping         CNVDamp         .... on
   Fraction old density DampFac         ....    0.7000
   Max. Damping (<1)    DampMax         ....    0.9800
   Min. Damping (>=0)   DampMin         ....    0.0000
   Turn off err/grad.   DampErr         ....    0.1000
 Fernandez-Rico         CNVRico         .... off

SCF Procedure:
 Maximum # iterations   MaxIter         ....   125
 SCF integral mode      SCFMode         .... Direct
   Integral package                     .... LIBINT
 Reset frequeny         DirectResetFreq ....    20
 Integral Threshold     Thresh          ....  1.000e-10 Eh
 Primitive CutOff       TCut            ....  1.000e-11 Eh

Convergence Tolerance:
 Convergence Check Mode ConvCheckMode   .... Total+1el-Energy
 Convergence forced     ConvForced      .... 0
 Energy Change          TolE            ....  1.000e-06 Eh
 1-El. energy change                    ....  1.000e-03 Eh
 DIIS Error             TolErr          ....  1.000e-06


Diagonalization of the overlap matrix:
Smallest eigenvalue                        ... 1.793e-04
Time for diagonalization                   ...    0.006 sec
Threshold for overlap eigenvalues          ... 1.000e-08
Number of eigenvalues below threshold      ... 0
Time for construction of square roots      ...    0.002 sec
Total time needed                          ...    0.009 sec

-------------------
DFT GRID GENERATION
-------------------

General Integration Accuracy     IntAcc      ...  4.340
Radial Grid Type                 RadialGrid  ... Gauss-Chebyshev
Angular Grid (max. acc.)         AngularGrid ... Lebedev-110
Angular grid pruning method      GridPruning ... 3 (G Style)
Weight generation scheme         WeightScheme... Becke
Basis function cutoff            BFCut       ...    1.0000e-10
Integration weight cutoff        WCut        ...    1.0000e-14
Grids for H and He will be reduced by one unit

# of grid points (after initial pruning)     ...  11606 (   0.0 sec)
# of grid points (after weights+screening)   ...  11090 (   0.0 sec)
nearest neighbour list constructed           ...    0.0 sec
Grid point re-assignment to atoms done       ...    0.0 sec
Grid point division into batches done        ...    0.0 sec
Reduced shell lists constructed in    0.0 sec

Total number of grid points                  ...    11090
Total number of batches                      ...      178
Average number of points per batch           ...       62
Average number of grid points per atom       ...     1232
Average number of shells per batch           ...    66.00 (86.84%)
Average number of basis functions per batch  ...   181.17 (86.27%)
Average number of large shells per batch     ...    57.04 (86.43%)
Average number of large basis fcns per batch ...   158.48 (87.47%)
Average number of aux-shells per batch       ...    66.00 (68.04%)
Average number of aux functions per batch    ...   181.17 (62.26%)
Maximum spatial batch extension              ...  17.81, 15.07, 15.07 au
Average spatial batch extension              ...   0.77,  0.94,  0.93 au

Time for grid setup =    0.058 sec

------------------------------
INITIAL GUESS: MODEL POTENTIAL
------------------------------
Loading Hartree-Fock densities                     ... done
Calculating cut-offs                               ... done
Setting up the integral package                    ... done
Initializing the effective Hamiltonian             ... done
Starting the Coulomb interaction                   ... done (   0.0 sec)
Reading the grid                                   ... done
Mapping shells                                     ... done
Starting the XC term evaluation                    ... done (   0.1 sec)
  promolecular density results
     # of electrons  =     43.993941276
     EX              =    -46.516800723
     EC              =     -1.538564370
     EX+EC           =    -48.055365093
Transforming the Hamiltonian                       ... done (   0.0 sec)
Diagonalizing the Hamiltonian                      ... done (   0.0 sec)
Back transforming the eigenvectors                 ... done (   0.0 sec)
Now organizing SCF variables                       ... done
                      ------------------
                      INITIAL GUESS DONE (   0.2 sec)
                      ------------------
--------------
SCF ITERATIONS
--------------
ITER       Energy         Delta-E        Max-DP      RMS-DP      [F,P]     Damp
  0   -551.8680836716   0.000000000000 0.04196642  0.00082311  0.1829195 0.7000
  1   -551.9141823412  -0.046098669574 0.04160510  0.00080807  0.1140473 0.7000
                               ***Turning on DIIS***
  2   -551.9784121581  -0.064229816920 0.07074598  0.00150787  0.0392991 0.0000
  3   -552.0903702990  -0.111958140899 0.02756222  0.00054515  0.0777073 0.0000
  4   -552.1365195063  -0.046149207267 0.01461732  0.00028646  0.0297047 0.0000
  5   -552.1426875921  -0.006168085884 0.00688226  0.00013879  0.0108005 0.0000
  6   -552.1437178293  -0.001030237177 0.00318149  0.00006639  0.0037572 0.0000
  7   -552.1438680726  -0.000150243323 0.00121586  0.00002857  0.0010634 0.0000
  8   -552.1438941195  -0.000026046807 0.00087768  0.00002149  0.0003479 0.0000
  9   -552.1439042251  -0.000010105642 0.00023770  0.00000576  0.0001288 0.0000
 10   -552.1439064431  -0.000002217954 0.00011687  0.00000285  0.0000511 0.0000
 11   -552.1439069941  -0.000000551013 0.00007383  0.00000170  0.0000366 0.0000
                 **** Energy Check signals convergence ****

               *****************************************************
               *                     SUCCESS                       *
               *           SCF CONVERGED AFTER  12 CYCLES          *
               *****************************************************

Setting up the final grid:

General Integration Accuracy     IntAcc      ...  4.670
Radial Grid Type                 RadialGrid  ... Gauss-Chebyshev
Angular Grid (max. acc.)         AngularGrid ... Lebedev-302
Angular grid pruning method      GridPruning ... 3 (G Style)
Weight generation scheme         WeightScheme... Becke
Basis function cutoff            BFCut       ...    1.0000e-10
Integration weight cutoff        WCut        ...    1.0000e-14
Grids for H and He will be reduced by one unit

# of grid points (after initial pruning)     ...  45270 (   0.0 sec)
# of grid points (after weights+screening)   ...  42877 (   0.0 sec)
nearest neighbour list constructed           ...    0.0 sec
Grid point re-assignment to atoms done       ...    0.0 sec
Grid point division into batches done        ...    0.1 sec
Reduced shell lists constructed in    0.2 sec

Total number of grid points                  ...    42877
Total number of batches                      ...      675
Average number of points per batch           ...       63
Average number of grid points per atom       ...     4764
Average number of shells per batch           ...    63.64 (83.74%)
Average number of basis functions per batch  ...   173.70 (82.71%)
Average number of large shells per batch     ...    52.24 (82.08%)
Average number of large basis fcns per batch ...   144.47 (83.17%)
Maximum spatial batch extension              ...  15.21, 16.62, 18.44 au
Average spatial batch extension              ...   0.51,  0.58,  0.59 au

Final grid set up in    0.2 sec
Final integration                            ... done (   0.4 sec)
Change in XC energy                          ...    -0.000095307
Integrated number of electrons               ...    45.000001627
Previous integrated no of electrons          ...    45.000593792

----------------
TOTAL SCF ENERGY
----------------

Total Energy       :         -552.14400246 Eh          -15024.60214 eV

Components:
Nuclear Repulsion  :          201.94863603 Eh            5495.30176 eV
Electronic Energy  :         -754.09263849 Eh          -20519.90390 eV
One Electron Energy:        -1167.60098847 Eh          -31772.03816 eV
Two Electron Energy:          413.50834998 Eh           11252.13425 eV

Virial components:
Potential Energy   :        -1102.32078764 Eh          -29995.67358 eV
Kinetic Energy     :          550.17678518 Eh           14971.07144 eV
Virial Ratio       :            2.00357561


DFT components:
N(Alpha)           :       23.000001373642 electrons
N(Beta)            :       22.000000253767 electrons
N(Total)           :       45.000001627409 electrons
E(X)               :      -35.359989415519 Eh       
E(C)               :       -1.578977779344 Eh       
E(XC)              :      -36.938967194863 Eh       

---------------
SCF CONVERGENCE
---------------

  Last Energy change         ...   -1.5515e-07  Tolerance :   1.0000e-06
  Last MAX-Density change    ...    2.4967e-05  Tolerance :   1.0000e-05
  Last RMS-Density change    ...    6.3034e-07  Tolerance :   1.0000e-06
  Last DIIS Error            ...    5.6252e-06  Tolerance :   1.0000e-06

             **** THE GBW FILE WAS UPDATED (system.gbw) ****
             **** DENSITY FILE WAS UPDATED (system.scfp.tmp) ****
             **** ENERGY FILE WAS UPDATED (system.en.tmp) ****
----------------------
UHF SPIN CONTAMINATION
----------------------

Warning: in a DFT calculation there is little theoretical justification to 
         calculate <S**2> as in Hartree-Fock theory. We will do it anyways
         but you should keep in mind that the values have only limited relevance

Expectation value of <S**2>     :     0.763219
Ideal value S*(S+1) for S=0.5   :     0.750000
Deviation                       :     0.013219

----------------
ORBITAL ENERGIES
----------------
                 SPIN UP ORBITALS
  NO   OCC          E(Eh)            E(eV) 
   0   1.0000     -88.854457     -2417.8527 
   1   1.0000     -10.010706      -272.4051 
   2   1.0000     -10.010696      -272.4049 
   3   1.0000     -10.009595      -272.3749 
   4   1.0000     -10.008962      -272.3577 
   5   1.0000      -7.731670      -210.3894 
   6   1.0000      -5.650693      -153.7632 
   7   1.0000      -5.647258      -153.6697 
   8   1.0000      -5.635551      -153.3511 
   9   1.0000      -0.675727       -18.3875 
  10   1.0000      -0.537131       -14.6161 
  11   1.0000      -0.515013       -14.0142 
  12   1.0000      -0.364385        -9.9154 
  13   1.0000      -0.350706        -9.5432 
  14   1.0000      -0.314508        -8.5582 
  15   1.0000      -0.199911        -5.4398 
  16   1.0000      -0.190972        -5.1966 
  17   1.0000      -0.180895        -4.9224 
  18   1.0000      -0.179253        -4.8777 
  19   1.0000      -0.137073        -3.7299 
  20   1.0000      -0.060126        -1.6361 
  21   1.0000      -0.039935        -1.0867 
  22   1.0000       0.122969         3.3461 
  23   0.0000       0.221678         6.0322 
  24   0.0000       0.232394         6.3238 
  25   0.0000       0.254503         6.9254 
  26   0.0000       0.255364         6.9488 
  27   0.0000       0.259974         7.0743 
  28   0.0000       0.291403         7.9295 
  29   0.0000       0.294090         8.0026 
  30   0.0000       0.389044        10.5864 
  31   0.0000       0.409877        11.1533 
  32   0.0000       0.436693        11.8830 
  33   0.0000       0.463927        12.6241 
  34   0.0000       0.468102        12.7377 
  35   0.0000       0.489998        13.3335 
  36   0.0000       0.513308        13.9678 
  37   0.0000       0.526888        14.3374 
  38   0.0000       0.531435        14.4611 
  39   0.0000       0.558201        15.1894 
  40   0.0000       0.563506        15.3338 
  41   0.0000       0.573382        15.6025 
  42   0.0000       0.590884        16.0788 
  43   0.0000       0.592179        16.1140 
  44   0.0000       0.602483        16.3944 
  45   0.0000       0.613127        16.6840 
  46   0.0000       0.625556        17.0222 
  47   0.0000       0.639377        17.3983 
  48   0.0000       0.641460        17.4550 
  49   0.0000       0.652174        17.7466 
  50   0.0000       0.671050        18.2602 
  51   0.0000       0.698605        19.0100 
  52   0.0000       0.699965        19.0470 
  53   0.0000       0.790449        21.5092 
  54   0.0000       0.806157        21.9366 
  55   0.0000       0.807949        21.9854 
  56   0.0000       0.841109        22.8877 
  57   0.0000       0.887825        24.1589 
  58   0.0000       0.896825        24.4038 
  59   0.0000       0.901037        24.5185 
  60   0.0000       0.911945        24.8153 
  61   0.0000       0.985946        26.8290 
  62   0.0000       1.003201        27.2985 
  63   0.0000       1.022568        27.8255 
  64   0.0000       1.053531        28.6680 
  65   0.0000       1.088860        29.6294 
  66   0.0000       1.115096        30.3433 
  67   0.0000       1.147144        31.2154 
  68   0.0000       1.163429        31.6585 
  69   0.0000       1.186941        32.2983 
  70   0.0000       1.199812        32.6486 
  71   0.0000       1.245582        33.8940 
  72   0.0000       1.256596        34.1937 
  73   0.0000       1.260000        34.2864 
  74   0.0000       1.305079        35.5130 
  75   0.0000       1.333281        36.2804 
  76   0.0000       1.392609        37.8948 
  77   0.0000       1.396310        37.9955 
  78   0.0000       1.423913        38.7466 
  79   0.0000       1.425969        38.8026 
  80   0.0000       1.468665        39.9644 
  81   0.0000       1.469393        39.9842 
  82   0.0000       1.501507        40.8581 
  83   0.0000       1.518997        41.3340 
  84   0.0000       1.532008        41.6881 
  85   0.0000       1.611168        43.8421 
  86   0.0000       1.612279        43.8723 
  87   0.0000       1.623736        44.1841 
  88   0.0000       1.656629        45.0792 
  89   0.0000       1.697201        46.1832 
  90   0.0000       1.763173        47.9784 
  91   0.0000       1.801031        49.0085 
  92   0.0000       1.801150        49.0118 
  93   0.0000       1.811164        49.2843 
  94   0.0000       1.839957        50.0678 
  95   0.0000       1.893215        51.5170 
  96   0.0000       1.965768        53.4913 
  97   0.0000       2.022752        55.0419 
  98   0.0000       2.070604        56.3440 
  99   0.0000       2.097393        57.0730 
 100   0.0000       2.161739        58.8239 
 101   0.0000       2.162538        58.8457 
 102   0.0000       2.167631        58.9842 
 103   0.0000       2.179545        59.3084 
 104   0.0000       2.184126        59.4331 
 105   0.0000       2.273068        61.8533 
 106   0.0000       2.316102        63.0243 
 107   0.0000       2.361049        64.2474 
 108   0.0000       2.404993        65.4432 
 109   0.0000       2.420294        65.8596 
 110   0.0000       2.453831        66.7721 
 111   0.0000       2.465340        67.0853 
 112   0.0000       2.503215        68.1160 
 113   0.0000       2.602635        70.8213 
 114   0.0000       2.634023        71.6754 
 115   0.0000       2.646376        72.0116 
 116   0.0000       2.670904        72.6790 
 117   0.0000       2.672177        72.7136 
 118   0.0000       2.763334        75.1941 
 119   0.0000       2.779220        75.6264 
 120   0.0000       2.857108        77.7459 
 121   0.0000       2.875198        78.2381 
 122   0.0000       2.909587        79.1739 
 123   0.0000       2.918321        79.4115 
 124   0.0000       2.952128        80.3315 
 125   0.0000       3.020386        82.1889 
 126   0.0000       3.026429        82.3533 
 127   0.0000       3.043796        82.8259 
 128   0.0000       3.076747        83.7226 
 129   0.0000       3.125012        85.0359 
 130   0.0000       3.130768        85.1925 
 131   0.0000       3.170008        86.2603 
 132   0.0000       3.170529        86.2745 
 133   0.0000       3.201314        87.1122 
 134   0.0000       3.203175        87.1628 
 135   0.0000       3.246116        88.3313 
 136   0.0000       3.250696        88.4559 
 137   0.0000       3.308812        90.0374 
 138   0.0000       3.316085        90.2353 
 139   0.0000       3.337211        90.8101 
 140   0.0000       3.364085        91.5414 
 141   0.0000       3.370030        91.7032 
 142   0.0000       3.373833        91.8067 
 143   0.0000       3.393738        92.3483 
 144   0.0000       3.413739        92.8926 
 145   0.0000       3.435884        93.4951 
 146   0.0000       3.441874        93.6581 
 147   0.0000       3.456415        94.0538 
 148   0.0000       3.518104        95.7325 
 149   0.0000       3.553993        96.7091 
 150   0.0000       3.572809        97.2211 
 151   0.0000       3.604114        98.0729 
 152   0.0000       3.627204        98.7012 
 153   0.0000       3.642510        99.1177 
 154   0.0000       3.679604       100.1271 
 155   0.0000       3.696381       100.5836 
 156   0.0000       3.778779       102.8258 
 157   0.0000       3.806333       103.5756 
 158   0.0000       3.815369       103.8215 
 159   0.0000       3.875175       105.4489 
 160   0.0000       3.878836       105.5485 
 161   0.0000       3.883712       105.6812 
 162   0.0000       3.923570       106.7658 
 163   0.0000       3.965362       107.9030 
 164   0.0000       3.988566       108.5344 
 165   0.0000       4.034517       109.7848 
 166   0.0000       4.041354       109.9708 
 167   0.0000       4.063296       110.5679 
 168   0.0000       4.127707       112.3206 
 169   0.0000       4.128288       112.3364 
 170   0.0000       4.152635       112.9989 
 171   0.0000       4.162025       113.2544 
 172   0.0000       4.230758       115.1248 
 173   0.0000       4.249613       115.6379 
 174   0.0000       4.274258       116.3085 
 175   0.0000       4.370428       118.9254 
 176   0.0000       4.396431       119.6330 
 177   0.0000       4.451525       121.1322 
 178   0.0000       4.500551       122.4662 
 179   0.0000       4.503128       122.5363 
 180   0.0000       4.505723       122.6070 
 181   0.0000       4.561440       124.1231 
 182   0.0000       4.581885       124.6794 
 183   0.0000       4.681351       127.3860 
 184   0.0000       4.708863       128.1347 
 185   0.0000       4.742279       129.0440 
 186   0.0000       4.784994       130.2063 
 187   0.0000       4.836813       131.6164 
 188   0.0000       4.900536       133.3504 
 189   0.0000       5.010351       136.3386 
 190   0.0000       5.017421       136.5310 
 191   0.0000       5.107114       138.9716 
 192   0.0000       5.174641       140.8091 
 193   0.0000       5.195556       141.3783 
 194   0.0000       5.212290       141.8336 
 195   0.0000       5.238866       142.5568 
 196   0.0000       5.338449       145.2666 
 197   0.0000       5.459993       148.5740 
 198   0.0000       5.525805       150.3648 
 199   0.0000       5.730044       155.9224 
 200   0.0000       5.791506       157.5949 
 201   0.0000       5.910466       160.8320 
 202   0.0000       5.940087       161.6380 
 203   0.0000       6.035314       164.2292 
 204   0.0000       6.345136       172.6599 
 205   0.0000       6.550195       178.2399 
 206   0.0000       9.710994       264.2496 
 207   0.0000      11.550554       314.3065 
 208   0.0000      12.458578       339.0152 
 209   0.0000      13.726616       373.5202 

                 SPIN DOWN ORBITALS
  NO   OCC          E(Eh)            E(eV) 
   0   1.0000     -88.853640     -2417.8305 
   1   1.0000     -10.009361      -272.3686 
   2   1.0000     -10.008734      -272.3515 
   3   1.0000     -10.004239      -272.2292 
   4   1.0000     -10.004226      -272.2288 
   5   1.0000      -7.730829      -210.3666 
   6   1.0000      -5.650510      -153.7582 
   7   1.0000      -5.647051      -153.6641 
   8   1.0000      -5.631596      -153.2435 
   9   1.0000      -0.669204       -18.2100 
  10   1.0000      -0.531694       -14.4681 
  11   1.0000      -0.503881       -13.7113 
  12   1.0000      -0.351552        -9.5662 
  13   1.0000      -0.346921        -9.4402 
  14   1.0000      -0.311440        -8.4747 
  15   1.0000      -0.196779        -5.3546 
  16   1.0000      -0.188533        -5.1302 
  17   1.0000      -0.176475        -4.8021 
  18   1.0000      -0.160843        -4.3768 
  19   1.0000      -0.129772        -3.5313 
  20   1.0000      -0.041070        -1.1176 
  21   1.0000      -0.002807        -0.0764 
  22   0.0000       0.218724         5.9518 
  23   0.0000       0.222772         6.0619 
  24   0.0000       0.236629         6.4390 
  25   0.0000       0.255715         6.9584 
  26   0.0000       0.257506         7.0071 
  27   0.0000       0.273245         7.4354 
  28   0.0000       0.293803         7.9948 
  29   0.0000       0.299690         8.1550 
  30   0.0000       0.391411        10.6508 
  31   0.0000       0.410666        11.1748 
  32   0.0000       0.440948        11.9988 
  33   0.0000       0.466693        12.6994 
  34   0.0000       0.475703        12.9445 
  35   0.0000       0.495386        13.4801 
  36   0.0000       0.519229        14.1289 
  37   0.0000       0.536094        14.5879 
  38   0.0000       0.542611        14.7652 
  39   0.0000       0.561820        15.2879 
  40   0.0000       0.567856        15.4521 
  41   0.0000       0.581967        15.8361 
  42   0.0000       0.594505        16.1773 
  43   0.0000       0.613804        16.7025 
  44   0.0000       0.618989        16.8436 
  45   0.0000       0.627934        17.0870 
  46   0.0000       0.630230        17.1494 
  47   0.0000       0.646092        17.5811 
  48   0.0000       0.646387        17.5891 
  49   0.0000       0.654985        17.8231 
  50   0.0000       0.677005        18.4222 
  51   0.0000       0.703315        19.1382 
  52   0.0000       0.704095        19.1594 
  53   0.0000       0.792112        21.5545 
  54   0.0000       0.816027        22.2052 
  55   0.0000       0.817698        22.2507 
  56   0.0000       0.844843        22.9893 
  57   0.0000       0.890377        24.2284 
  58   0.0000       0.902443        24.5567 
  59   0.0000       0.906511        24.6674 
  60   0.0000       0.920311        25.0429 
  61   0.0000       0.990724        26.9590 
  62   0.0000       1.004485        27.3334 
  63   0.0000       1.029460        28.0130 
  64   0.0000       1.056986        28.7620 
  65   0.0000       1.098719        29.8977 
  66   0.0000       1.125578        30.6285 
  67   0.0000       1.149594        31.2820 
  68   0.0000       1.167701        31.7748 
  69   0.0000       1.190098        32.3842 
  70   0.0000       1.206481        32.8300 
  71   0.0000       1.247448        33.9448 
  72   0.0000       1.257579        34.2205 
  73   0.0000       1.272427        34.6245 
  74   0.0000       1.310878        35.6708 
  75   0.0000       1.340201        36.4687 
  76   0.0000       1.393952        37.9314 
  77   0.0000       1.405597        38.2482 
  78   0.0000       1.428672        38.8761 
  79   0.0000       1.429459        38.8976 
  80   0.0000       1.471422        40.0394 
  81   0.0000       1.472673        40.0735 
  82   0.0000       1.512112        41.1467 
  83   0.0000       1.521007        41.3887 
  84   0.0000       1.539375        41.8885 
  85   0.0000       1.615458        43.9588 
  86   0.0000       1.618729        44.0479 
  87   0.0000       1.629497        44.3409 
  88   0.0000       1.661959        45.2242 
  89   0.0000       1.701523        46.3008 
  90   0.0000       1.766178        48.0601 
  91   0.0000       1.807315        49.1795 
  92   0.0000       1.808519        49.2123 
  93   0.0000       1.816284        49.4236 
  94   0.0000       1.847372        50.2696 
  95   0.0000       1.894954        51.5643 
  96   0.0000       1.970927        53.6317 
  97   0.0000       2.030555        55.2542 
  98   0.0000       2.077720        56.5376 
  99   0.0000       2.113691        57.5164 
 100   0.0000       2.166563        58.9552 
 101   0.0000       2.167731        58.9870 
 102   0.0000       2.182088        59.3776 
 103   0.0000       2.185586        59.4728 
 104   0.0000       2.198711        59.8300 
 105   0.0000       2.276932        61.9585 
 106   0.0000       2.321582        63.1735 
 107   0.0000       2.377433        64.6932 
 108   0.0000       2.407385        65.5083 
 109   0.0000       2.422599        65.9223 
 110   0.0000       2.456774        66.8522 
 111   0.0000       2.484114        67.5962 
 112   0.0000       2.507780        68.2402 
 113   0.0000       2.606815        70.9350 
 114   0.0000       2.647756        72.0491 
 115   0.0000       2.650490        72.1235 
 116   0.0000       2.677021        72.8454 
 117   0.0000       2.678040        72.8732 
 118   0.0000       2.770806        75.3975 
 119   0.0000       2.791524        75.9612 
 120   0.0000       2.864778        77.9546 
 121   0.0000       2.880522        78.3830 
 122   0.0000       2.912961        79.2657 
 123   0.0000       2.926578        79.6362 
 124   0.0000       2.961000        80.5729 
 125   0.0000       3.025115        82.3176 
 126   0.0000       3.036257        82.6208 
 127   0.0000       3.050951        83.0206 
 128   0.0000       3.080680        83.8296 
 129   0.0000       3.135568        85.3232 
 130   0.0000       3.137147        85.3661 
 131   0.0000       3.173195        86.3470 
 132   0.0000       3.178880        86.5017 
 133   0.0000       3.210481        87.3616 
 134   0.0000       3.213984        87.4570 
 135   0.0000       3.251843        88.4871 
 136   0.0000       3.260632        88.7263 
 137   0.0000       3.317669        90.2784 
 138   0.0000       3.318303        90.2956 
 139   0.0000       3.349447        91.1431 
 140   0.0000       3.369855        91.6984 
 141   0.0000       3.375880        91.8624 
 142   0.0000       3.390412        92.2578 
 143   0.0000       3.408034        92.7373 
 144   0.0000       3.418041        93.0096 
 145   0.0000       3.439929        93.6052 
 146   0.0000       3.450755        93.8998 
 147   0.0000       3.465396        94.2982 
 148   0.0000       3.521812        95.8334 
 149   0.0000       3.558026        96.8188 
 150   0.0000       3.583005        97.4985 
 151   0.0000       3.615523        98.3834 
 152   0.0000       3.629335        98.7592 
 153   0.0000       3.646987        99.2396 
 154   0.0000       3.686223       100.3072 
 155   0.0000       3.702820       100.7589 
 156   0.0000       3.789769       103.1248 
 157   0.0000       3.808804       103.6428 
 158   0.0000       3.816270       103.8460 
 159   0.0000       3.879040       105.5541 
 160   0.0000       3.881693       105.6262 
 161   0.0000       3.890090       105.8547 
 162   0.0000       3.931689       106.9867 
 163   0.0000       3.967270       107.9549 
 164   0.0000       3.992926       108.6530 
 165   0.0000       4.035746       109.8182 
 166   0.0000       4.047248       110.1312 
 167   0.0000       4.067392       110.6794 
 168   0.0000       4.130241       112.3896 
 169   0.0000       4.130830       112.4056 
 170   0.0000       4.155110       113.0663 
 171   0.0000       4.167238       113.3963 
 172   0.0000       4.233891       115.2100 
 173   0.0000       4.251865       115.6991 
 174   0.0000       4.274770       116.3224 
 175   0.0000       4.371868       118.9646 
 176   0.0000       4.399030       119.7037 
 177   0.0000       4.451768       121.1388 
 178   0.0000       4.502908       122.5304 
 179   0.0000       4.505163       122.5917 
 180   0.0000       4.514416       122.8435 
 181   0.0000       4.562834       124.1610 
 182   0.0000       4.588895       124.8702 
 183   0.0000       4.682187       127.4088 
 184   0.0000       4.710873       128.1894 
 185   0.0000       4.742829       129.0589 
 186   0.0000       4.786884       130.2577 
 187   0.0000       4.842304       131.7658 
 188   0.0000       4.903575       133.4331 
 189   0.0000       5.010678       136.3475 
 190   0.0000       5.025985       136.7640 
 191   0.0000       5.110293       139.0582 
 192   0.0000       5.176024       140.8468 
 193   0.0000       5.203823       141.6032 
 194   0.0000       5.212945       141.8515 
 195   0.0000       5.239554       142.5755 
 196   0.0000       5.340103       145.3116 
 197   0.0000       5.460741       148.5943 
 198   0.0000       5.530073       150.4809 
 199   0.0000       5.732619       155.9925 
 200   0.0000       5.792330       157.6173 
 201   0.0000       5.910883       160.8433 
 202   0.0000       5.941437       161.6747 
 203   0.0000       6.036810       164.2699 
 204   0.0000       6.345633       172.6734 
 205   0.0000       6.551351       178.2713 
 206   0.0000       9.715334       264.3677 
 207   0.0000      11.557519       314.4961 
 208   0.0000      12.463438       339.1474 
 209   0.0000      13.728873       373.5816 

                    ********************************
                    * MULLIKEN POPULATION ANALYSIS *
                    ********************************

--------------------------------------------
MULLIKEN ATOMIC CHARGES AND SPIN POPULATIONS
--------------------------------------------
   0 C :   -0.174073    0.027534
   1 C :   -0.338656    0.404874
   2 S :   -0.155859    0.191943
   3 C :   -0.338457    0.404781
   4 C :   -0.173795    0.027452
   5 H :    0.029852   -0.005031
   6 H :    0.060720   -0.023268
   7 H :    0.060583   -0.023260
   8 H :    0.029685   -0.005024
Sum of atomic charges         :   -1.0000000
Sum of atomic spin populations:    1.0000000

-----------------------------------------------------
MULLIKEN REDUCED ORBITAL CHARGES AND SPIN POPULATIONS
-----------------------------------------------------
CHARGE
  0 C s       :     3.233668  s :     3.233668
      pz      :     0.990800  p :     2.829101
      px      :     0.870697
      py      :     0.967603
      dz2     :     0.022131  d :     0.102097
      dxz     :     0.026558
      dyz     :     0.006903
      dx2y2   :     0.018958
      dxy     :     0.027547
      f0      :     0.001032  f :     0.009206
      f+1     :     0.000943
      f-1     :     0.001420
      f+2     :     0.001403
      f-2     :     0.001543
      f+3     :     0.001550
      f-3     :     0.001315
  1 C s       :     3.213672  s :     3.213672
      pz      :     1.133353  p :     3.033560
      px      :     0.837456
      py      :     1.062750
      dz2     :     0.010062  d :     0.083248
      dxz     :     0.023918
      dyz     :     0.009539
      dx2y2   :     0.015352
      dxy     :     0.024377
      f0      :     0.000725  f :     0.008177
      f+1     :     0.001170
      f-1     :     0.001003
      f+2     :     0.001517
      f-2     :     0.001255
      f+3     :     0.001378
      f-3     :     0.001129
  2 S s       :     5.720678  s :     5.720678
      pz      :     3.421823  p :    10.212008
      px      :     3.449831
      py      :     3.340355
      dz2     :     0.042078  d :     0.203596
      dxz     :     0.052539
      dyz     :     0.024677
      dx2y2   :     0.030194
      dxy     :     0.054108
      f0      :     0.001808  f :     0.019577
      f+1     :     0.003456
      f-1     :     0.002119
      f+2     :     0.002541
      f-2     :     0.003722
      f+3     :     0.003049
      f-3     :     0.002883
  3 C s       :     3.213430  s :     3.213430
      pz      :     1.132951  p :     3.033679
      px      :     0.837967
      py      :     1.062762
      dz2     :     0.010022  d :     0.083174
      dxz     :     0.024032
      dyz     :     0.009460
      dx2y2   :     0.015213
      dxy     :     0.024447
      f0      :     0.000730  f :     0.008174
      f+1     :     0.001162
      f-1     :     0.001004
      f+2     :     0.001519
      f-2     :     0.001253
      f+3     :     0.001376
      f-3     :     0.001130
  4 C s       :     3.233722  s :     3.233722
      pz      :     0.990561  p :     2.828821
      px      :     0.870733
      py      :     0.967528
      dz2     :     0.021867  d :     0.102048
      dxz     :     0.026826
      dyz     :     0.006915
      dx2y2   :     0.018858
      dxy     :     0.027581
      f0      :     0.001041  f :     0.009204
      f+1     :     0.000928
      f-1     :     0.001419
      f+2     :     0.001407
      f-2     :     0.001539
      f+3     :     0.001550
      f-3     :     0.001320
  5 H s       :     0.935334  s :     0.935334
      pz      :     0.013240  p :     0.032487
      px      :     0.007389
      py      :     0.011859
      dz2     :     0.000409  d :     0.002326
      dxz     :     0.000463
      dyz     :     0.000280
      dx2y2   :     0.000731
      dxy     :     0.000444
  6 H s       :     0.896653  s :     0.896653
      pz      :     0.018150  p :     0.040194
      px      :     0.007792
      py      :     0.014252
      dz2     :     0.000835  d :     0.002432
      dxz     :     0.000351
      dyz     :     0.000359
      dx2y2   :     0.000483
      dxy     :     0.000404
  7 H s       :     0.896771  s :     0.896771
      pz      :     0.018205  p :     0.040214
      px      :     0.007751
      py      :     0.014258
      dz2     :     0.000832  d :     0.002432
      dxz     :     0.000349
      dyz     :     0.000362
      dx2y2   :     0.000488
      dxy     :     0.000401
  8 H s       :     0.935482  s :     0.935482
      pz      :     0.013221  p :     0.032507
      px      :     0.007428
      py      :     0.011857
      dz2     :     0.000415  d :     0.002326
      dxz     :     0.000456
      dyz     :     0.000282
      dx2y2   :     0.000732
      dxy     :     0.000441

SPIN
  0 C s       :     0.001117  s :     0.001117
      pz      :     0.011284  p :     0.016717
      px      :    -0.003693
      py      :     0.009126
      dz2     :     0.003186  d :     0.009485
      dxz     :     0.003466
      dyz     :    -0.000143
      dx2y2   :     0.001250
      dxy     :     0.001727
      f0      :     0.000104  f :     0.000214
      f+1     :     0.000025
      f-1     :    -0.000019
      f+2     :    -0.000021
      f-2     :    -0.000034
      f+3     :     0.000031
      f-3     :     0.000129
  1 C s       :     0.026777  s :     0.026777
      pz      :     0.205622  p :     0.379635
      px      :     0.012341
      py      :     0.161672
      dz2     :    -0.000021  d :    -0.000654
      dxz     :    -0.000308
      dyz     :    -0.000626
      dx2y2   :     0.000544
      dxy     :    -0.000244
      f0      :    -0.000119  f :    -0.000884
      f+1     :    -0.000021
      f-1     :    -0.000210
      f+2     :    -0.000278
      f-2     :    -0.000136
      f+3     :    -0.000017
      f-3     :    -0.000102
  2 S s       :     0.011986  s :     0.011986
      pz      :     0.098601  p :     0.153498
      px      :    -0.021875
      py      :     0.076771
      dz2     :    -0.001323  d :     0.025866
      dxz     :     0.014512
      dyz     :     0.001602
      dx2y2   :    -0.000464
      dxy     :     0.011540
      f0      :    -0.000054  f :     0.000594
      f+1     :     0.000109
      f-1     :     0.000437
      f+2     :     0.000225
      f-2     :    -0.000203
      f+3     :     0.000112
      f-3     :    -0.000031
  3 C s       :     0.026765  s :     0.026765
      pz      :     0.205533  p :     0.379557
      px      :     0.012359
      py      :     0.161664
      dz2     :    -0.000035  d :    -0.000657
      dxz     :    -0.000286
      dyz     :    -0.000627
      dx2y2   :     0.000531
      dxy     :    -0.000240
      f0      :    -0.000119  f :    -0.000884
      f+1     :    -0.000022
      f-1     :    -0.000209
      f+2     :    -0.000277
      f-2     :    -0.000137
      f+3     :    -0.000018
      f-3     :    -0.000102
  4 C s       :     0.001107  s :     0.001107
      pz      :     0.011330  p :     0.016658
      px      :    -0.003774
      py      :     0.009102
      dz2     :     0.003099  d :     0.009473
      dxz     :     0.003521
      dyz     :    -0.000147
      dx2y2   :     0.001263
      dxy     :     0.001737
      f0      :     0.000105  f :     0.000214
      f+1     :     0.000024
      f-1     :    -0.000019
      f+2     :    -0.000022
      f-2     :    -0.000035
      f+3     :     0.000031
      f-3     :     0.000130
  5 H s       :    -0.005757  s :    -0.005757
      pz      :     0.000585  p :     0.000660
      px      :    -0.000199
      py      :     0.000274
      dz2     :     0.000064  d :     0.000067
      dxz     :    -0.000005
      dyz     :    -0.000012
      dx2y2   :     0.000026
      dxy     :    -0.000007
  6 H s       :    -0.032176  s :    -0.032176
      pz      :     0.005231  p :     0.008458
      px      :    -0.000268
      py      :     0.003495
      dz2     :     0.000307  d :     0.000449
      dxz     :     0.000017
      dyz     :     0.000001
      dx2y2   :     0.000116
      dxy     :     0.000009
  7 H s       :    -0.032166  s :    -0.032166
      pz      :     0.005231  p :     0.008456
      px      :    -0.000266
      py      :     0.003491
      dz2     :     0.000305  d :     0.000449
      dxz     :     0.000019
      dyz     :     0.000001
      dx2y2   :     0.000116
      dxy     :     0.000009
  8 H s       :    -0.005753  s :    -0.005753
      pz      :     0.000589  p :     0.000662
      px      :    -0.000198
      py      :     0.000272
      dz2     :     0.000065  d :     0.000067
      dxz     :    -0.000005
      dyz     :    -0.000012
      dx2y2   :     0.000026
      dxy     :    -0.000007


                     *******************************
                     * LOEWDIN POPULATION ANALYSIS *
                     *******************************

-------------------------------------------
LOEWDIN ATOMIC CHARGES AND SPIN POPULATIONS
-------------------------------------------
   0 C :   -0.144826    0.067154
   1 C :   -0.337036    0.276273
   2 S :    0.350592    0.242866
   3 C :   -0.337037    0.276207
   4 C :   -0.144796    0.067106
   5 H :   -0.074208    0.003625
   6 H :   -0.119246    0.031580
   7 H :   -0.119244    0.031570
   8 H :   -0.074199    0.003619

----------------------------------------------------
LOEWDIN REDUCED ORBITAL CHARGES AND SPIN POPULATIONS
----------------------------------------------------
CHARGE
  0 C s       :     2.708563  s :     2.708563
      pz      :     0.971315  p :     2.921701
      px      :     0.974706
      py      :     0.975680
      dz2     :     0.088385  d :     0.466312
      dxz     :     0.108199
      dyz     :     0.051105
      dx2y2   :     0.100452
      dxy     :     0.118170
      f0      :     0.006211  f :     0.048250
      f+1     :     0.005813
      f-1     :     0.004689
      f+2     :     0.006277
      f-2     :     0.007970
      f+3     :     0.009121
      f-3     :     0.008168
  1 C s       :     2.761632  s :     2.761632
      pz      :     1.074422  p :     3.120805
      px      :     0.996180
      py      :     1.050202
      dz2     :     0.050433  d :     0.414360
      dxz     :     0.108943
      dyz     :     0.049068
      dx2y2   :     0.090036
      dxy     :     0.115879
      f0      :     0.003576  f :     0.040239
      f+1     :     0.007001
      f-1     :     0.002963
      f+2     :     0.005885
      f-2     :     0.006308
      f+3     :     0.008053
      f-3     :     0.006454
  2 S s       :     5.291857  s :     5.291857
      pz      :     3.315709  p :     9.893874
      px      :     3.332215
      py      :     3.245949
      dz2     :     0.079229  d :     0.402863
      dxz     :     0.103132
      dyz     :     0.051472
      dx2y2   :     0.064232
      dxy     :     0.104797
      f0      :     0.004508  f :     0.060814
      f+1     :     0.010884
      f-1     :     0.006435
      f+2     :     0.009008
      f-2     :     0.009788
      f+3     :     0.010341
      f-3     :     0.009851
  3 C s       :     2.761628  s :     2.761628
      pz      :     1.074157  p :     3.120799
      px      :     0.996500
      py      :     1.050141
      dz2     :     0.050432  d :     0.414369
      dxz     :     0.109264
      dyz     :     0.048939
      dx2y2   :     0.089639
      dxy     :     0.116094
      f0      :     0.003615  f :     0.040242
      f+1     :     0.006941
      f-1     :     0.002977
      f+2     :     0.005915
      f-2     :     0.006282
      f+3     :     0.008033
      f-3     :     0.006478
  4 C s       :     2.708564  s :     2.708564
      pz      :     0.971130  p :     2.921656
      px      :     0.974901
      py      :     0.975624
      dz2     :     0.087522  d :     0.466325
      dxz     :     0.108914
      dyz     :     0.051088
      dx2y2   :     0.100474
      dxy     :     0.118328
      f0      :     0.006276  f :     0.048252
      f+1     :     0.005716
      f-1     :     0.004701
      f+2     :     0.006297
      f-2     :     0.007941
      f+3     :     0.009123
      f-3     :     0.008198
  5 H s       :     0.875157  s :     0.875157
      pz      :     0.053974  p :     0.170307
      px      :     0.063215
      py      :     0.053118
      dz2     :     0.004330  d :     0.028744
      dxz     :     0.007101
      dyz     :     0.002537
      dx2y2   :     0.007475
      dxy     :     0.007301
  6 H s       :     0.888443  s :     0.888443
      pz      :     0.080239  p :     0.199394
      px      :     0.039078
      py      :     0.080077
      dz2     :     0.008953  d :     0.031408
      dxz     :     0.003946
      dyz     :     0.007690
      dx2y2   :     0.005957
      dxy     :     0.004862
  7 H s       :     0.888450  s :     0.888450
      pz      :     0.080167  p :     0.199386
      px      :     0.039170
      py      :     0.080049
      dz2     :     0.008921  d :     0.031408
      dxz     :     0.003960
      dyz     :     0.007672
      dx2y2   :     0.005977
      dxy     :     0.004877
  8 H s       :     0.875155  s :     0.875155
      pz      :     0.054107  p :     0.170300
      px      :     0.063037
      py      :     0.053155
      dz2     :     0.004374  d :     0.028744
      dxz     :     0.007081
      dyz     :     0.002576
      dx2y2   :     0.007445
      dxy     :     0.007268

SPIN
  0 C s       :    -0.000373  s :    -0.000373
      pz      :     0.010489  p :     0.016885
      px      :    -0.002053
      py      :     0.008450
      dz2     :     0.009807  d :     0.046757
      dxz     :     0.018499
      dyz     :    -0.000151
      dx2y2   :     0.003863
      dxy     :     0.014741
      f0      :     0.000694  f :     0.003885
      f+1     :     0.000574
      f-1     :    -0.000236
      f+2     :     0.001038
      f-2     :    -0.000036
      f+3     :     0.000340
      f-3     :     0.001512
  1 C s       :     0.008803  s :     0.008803
      pz      :     0.143912  p :     0.261649
      px      :     0.004938
      py      :     0.112799
      dz2     :     0.008012  d :     0.004601
      dxz     :    -0.001960
      dyz     :    -0.001723
      dx2y2   :     0.001995
      dxy     :    -0.001722
      f0      :    -0.000148  f :     0.001220
      f+1     :    -0.000144
      f-1     :     0.000679
      f+2     :     0.000865
      f-2     :    -0.000166
      f+3     :    -0.000138
      f-3     :     0.000272
  2 S s       :     0.002646  s :     0.002646
      pz      :     0.091947  p :     0.154968
      px      :    -0.009548
      py      :     0.072569
      dz2     :     0.000634  d :     0.077833
      dxz     :     0.040949
      dyz     :     0.002713
      dx2y2   :     0.000090
      dxy     :     0.033448
      f0      :     0.000270  f :     0.007418
      f+1     :     0.000632
      f-1     :     0.003732
      f+2     :     0.002153
      f-2     :    -0.000060
      f+3     :     0.000493
      f-3     :     0.000198
  3 C s       :     0.008801  s :     0.008801
      pz      :     0.143870  p :     0.261589
      px      :     0.004934
      py      :     0.112785
      dz2     :     0.007969  d :     0.004596
      dxz     :    -0.001931
      dyz     :    -0.001717
      dx2y2   :     0.001999
      dxy     :    -0.001723
      f0      :    -0.000150  f :     0.001220
      f+1     :    -0.000143
      f-1     :     0.000678
      f+2     :     0.000866
      f-2     :    -0.000167
      f+3     :    -0.000137
      f-3     :     0.000272
  4 C s       :    -0.000375  s :    -0.000375
      pz      :     0.010477  p :     0.016840
      px      :    -0.002070
      py      :     0.008433
      dz2     :     0.009478  d :     0.046756
      dxz     :     0.018719
      dyz     :    -0.000142
      dx2y2   :     0.003928
      dxy     :     0.014772
      f0      :     0.000712  f :     0.003885
      f+1     :     0.000542
      f-1     :    -0.000237
      f+2     :     0.001044
      f-2     :    -0.000036
      f+3     :     0.000344
      f-3     :     0.001516
  5 H s       :    -0.001231  s :    -0.001231
      pz      :     0.002592  p :     0.004439
      px      :    -0.000254
      py      :     0.002100
      dz2     :     0.000348  d :     0.000417
      dxz     :     0.000003
      dyz     :    -0.000016
      dx2y2   :     0.000075
      dxy     :     0.000007
  6 H s       :    -0.008405  s :    -0.008405
      pz      :     0.019107  p :     0.035396
      px      :     0.000484
      py      :     0.015805
      dz2     :     0.003004  d :     0.004589
      dxz     :     0.000211
      dyz     :     0.000079
      dx2y2   :     0.001099
      dxy     :     0.000197
  7 H s       :    -0.008403  s :    -0.008403
      pz      :     0.019100  p :     0.035385
      px      :     0.000488
      py      :     0.015797
      dz2     :     0.002988  d :     0.004588
      dxz     :     0.000222
      dyz     :     0.000080
      dx2y2   :     0.001101
      dxy     :     0.000198
  8 H s       :    -0.001229  s :    -0.001229
      pz      :     0.002590  p :     0.004432
      px      :    -0.000257
      py      :     0.002099
      dz2     :     0.000352  d :     0.000416
      dxz     :     0.000000
      dyz     :    -0.000016
      dx2y2   :     0.000074
      dxy     :     0.000007


                      *****************************
                      * MAYER POPULATION ANALYSIS *
                      *****************************

  NA   - Mulliken gross atomic population
  ZA   - Total nuclear charge
  QA   - Mulliken gross atomic charge
  VA   - Mayer's total valence
  BVA  - Mayer's bonded valence
  FA   - Mayer's free valence

  ATOM       NA         ZA         QA         VA         BVA        FA
  0 C      6.1741     6.0000    -0.1741     3.8629     3.8553     0.0076
  1 C      6.3387     6.0000    -0.3387     3.6651     3.5319     0.1332
  2 S     16.1559    16.0000    -0.1559     2.4619     2.3972     0.0647
  3 C      6.3385     6.0000    -0.3385     3.6653     3.5321     0.1332
  4 C      6.1738     6.0000    -0.1738     3.8634     3.8557     0.0076
  5 H      0.9701     1.0000     0.0299     1.0050     1.0049     0.0000
  6 H      0.9393     1.0000     0.0607     1.0209     1.0198     0.0011
  7 H      0.9394     1.0000     0.0606     1.0209     1.0199     0.0011
  8 H      0.9703     1.0000     0.0297     1.0050     1.0050     0.0000

  Mayer bond orders larger than 0.1
B(  0-C ,  1-C ) :   1.3066 B(  0-C ,  4-C ) :   1.4563 B(  0-C ,  5-H ) :   0.9806 
B(  1-C ,  2-S ) :   1.1122 B(  1-C ,  6-H ) :   0.9879 B(  2-S ,  3-C ) :   1.1122 
B(  3-C ,  4-C ) :   1.3068 B(  3-C ,  7-H ) :   0.9880 B(  4-C ,  8-H ) :   0.9807 


-------
TIMINGS
-------

Total SCF time: 0 days 0 hours 0 min 8 sec 

Total time                  ....       8.271 sec
Sum of individual times     ....       8.190 sec  ( 99.0%)

Fock matrix formation       ....       7.340 sec  ( 88.7%)
  XC integration            ....       2.084 sec  ( 28.4% of F)
    Basis function eval.    ....       0.272 sec  ( 13.0% of XC)
    Density eval.           ....       0.405 sec  ( 19.4% of XC)
    XC-Functional eval.     ....       0.035 sec  (  1.7% of XC)
    XC-Potential eval.      ....       1.259 sec  ( 60.4% of XC)
Diagonalization             ....       0.264 sec  (  3.2%)
Density matrix formation    ....       0.009 sec  (  0.1%)
Population analysis         ....       0.034 sec  (  0.4%)
Initial guess               ....       0.165 sec  (  2.0%)
Orbital Transformation      ....       0.000 sec  (  0.0%)
Orbital Orthonormalization  ....       0.000 sec  (  0.0%)
DIIS solution               ....       0.072 sec  (  0.9%)
Grid generation             ....       0.306 sec  (  3.7%)

-------------------------   --------------------
FINAL SINGLE POINT ENERGY      -552.144002456496
-------------------------   --------------------


                            ***************************************
                            *     ORCA property calculations      *
                            ***************************************

                                    ---------------------
                                    Active property flags
                                    ---------------------
   (+) Dipole Moment
   (+) Polarizability


------------------------------------------------------------------------------
                       ORCA ELECTRIC PROPERTIES CALCULATION
------------------------------------------------------------------------------

Dipole Moment Calculation                       ... on
Quadrupole Moment Calculation                   ... off
Polarizability Calculation                      ... Analytic (CP-SCF)
GBWName                                         ... system.gbw
Electron density file                           ... system.scfp.tmp
The origin for moment calculation is the CENTER OF MASS  = (19.711566, 19.480289 19.504854)

-------------
DIPOLE MOMENT
-------------
                                X             Y             Z
Electronic contribution:     -3.78847       0.00292      -0.01224
Nuclear contribution   :      3.76615      -0.00291       0.01220
                        -----------------------------------------
Total Dipole Moment    :     -0.02232       0.00001      -0.00004
                        -----------------------------------------
Magnitude (a.u.)       :      0.02232
Magnitude (Debye)      :      0.05673

Transforming and storing MO dipole integrals   ... done

                ... starting polarizability calculation

Opening the Dipole integral file               ... (system.dmo.tmp) done
Reading Dipole-MO integrals                    ... done
Solving CP-SCF equations                       ... 

           ************************************************************
           *        Program running with 4 parallel MPI-processes     *
           *              working on a common directory               *
           ************************************************************

------------------------------------------------------------------------------
                           ORCA CP-SCF CALCULATION
------------------------------------------------------------------------------

Input orbitals are from        ... system.gbw
Input Perturbation             ... system.cpv.tmp
Wavefunction output            ... system.cpu.tmp
Perturbation mode              ... Real perturbation
Solver                         ... POPLE
Max. number of iterations      ... 64
Convergence tolerance          ... 1.000e-06
Integral handling              ... Direct
Number of perturbations        ... 3
Number of operators            ... 2
Orbital ranges used for CP-SCF:
 Operator 0:  Orbitals   0... 22  to  23...209
 Operator 1:  Orbitals   0... 21  to  22...209
DFT calculation                         ... on
Exchange functional (SCF)               ... PBE
Exchange functional (CP-SCF)            ... PBE
   PBE kappa parameter  XKappa (SCF)    ...  0.804000
   PBE kappa parameter  XKappa (CP-SCF) ...  0.804000
   PBE mue parameter   XMuePBE (SCF)    ...  0.219520
   PBE mue parameter   XMuePBE (CP-SCF) ...  0.219520
Correlation functional (SCF)            ... PBE
Correlation functional (CP-SCF)         ... PBE
   PBE beta parameter CBetaPBE (SCF)    ...  0.066725
   PBE beta parameter CBetaPBE (CP-SCF) ...  0.066725
 LDA part of GGA corr.  LDAOpt (SCF)    ... PW91-LDA
 LDA part of GGA corr.  LDAOpt (CP-SCF) ... PW91-LDA
Hybrid DFT                              ... on
   Exchange mixing (SCF)                ...  0.250
   Exchange mixing (CP-SCF)             ...  0.250
   GGA exch. scaling(SCF)               ...  0.750
   GGA exch. scaling (CP-SCF)           ...  0.750
   GGA corr. scaling (SCF)              ...  1.000
   GGA corr. scaling (CP-SCF)           ...  1.000
Variables per vector in CP-SCF ... 8437
Number of vectors sought       ... 3
Recalculating density on grid  ... done
Calculating the xc-kernel      ... done
     CP-SCF ITERATION   0: 
     CP-SCF ITERATION   1:      2.714122876778
     CP-SCF ITERATION   2:      0.395991793089
     CP-SCF ITERATION   3:      0.104651542347
     CP-SCF ITERATION   4:      0.007871490789
     CP-SCF ITERATION   5:      0.001294105129
     CP-SCF ITERATION   6:      0.000267707235
     CP-SCF ITERATION   7:      0.000057029327
     CP-SCF ITERATION   8:      0.000006189136
     CP-SCF ITERATION   9:      0.000001881651
     CP-SCF ITERATION  10:      0.000000644611
done
Reading CP-SCF coefficients                    ... done
Doing the polarizability tensor   ... done
Cleaning up                                    ... done

-------------------------
THE POLARIZABILITY TENSOR
-------------------------

The raw cartesian tensor (atomic units):
   78.89019      0.05872      0.04590  
    0.05872     63.69920    -21.76521  
    0.04590    -21.76521     59.03208  
diagonalized tensor: 
   39.47556     78.89028     83.25562  

   -0.00186      0.99999     -0.00298  
    0.66835     -0.00097     -0.74384  
    0.74384      0.00338      0.66835  

Isotropic polarizability :  67.20716

------------------------------------------------------------------------------
                      ORCA CHELPG CHARGES GENERATION
------------------------------------------------------------------------------

GBW file                           ... system.gbw

Reading the GBW file               ... done

Grid spacing                       ...     0.300000
Point Cut-Off                      ...     2.800000
Van-der-Waals Radii                ...        COSMO
Total charge                       ...           -1


Number of points X direction       ...           29
Number of points Y direction       ...           30
Number of points Z direction       ...           28
Maximum number of possible points  ...        24360
Final number of points             ...         7088


CHELPG Charges            
--------------------------------
  0   C   :      -0.285666
  1   C   :      -0.257398
  2   S   :      -0.310522
  3   C   :      -0.262597
  4   C   :      -0.286383
  5   H   :       0.100705
  6   H   :       0.098870
  7   H   :       0.101688
  8   H   :       0.101303
--------------------------------
Total charge:    -1.000000
--------------------------------

CHELPG charges calculated...

Timings for individual parts in CHELPG calculation:
Grid generation                 ...        0.001 sec (=   0.000 min)
Potential calculation           ...        4.118 sec (=   0.069 min)
Fit to the potential            ...        0.001 sec (=   0.000 min)
------------------------------------------------------------------------------


Timings for individual modules:

Sum of individual times         ...      129.823 sec (=   2.164 min)
GTO integral calculation        ...        0.343 sec (=   0.006 min)   0.3 %
SCF iterations                  ...        8.330 sec (=   0.139 min)   6.4 %
Solution of CP-SCF eqns.        ...      116.983 sec (=   1.950 min)  90.1 %
CHELPG charge generation        ...        4.167 sec (=   0.069 min)   3.2 %
                             ****ORCA TERMINATED NORMALLY****
TOTAL RUN TIME: 0 days 0 hours 2 minutes 10 seconds 35 msec
