LAMMPS data file via write_data, version 9 Nov 2016, timestep = 15

9000 atoms
69 atom types
9000 bonds
253 bond types
13000 angles
154 angle types
16000 dihedrals
47 dihedral types
4000 impropers
5 improper types

-1.0000000000000000e+01 5.0000000000000000e+01 xlo xhi
-1.0000000000000000e+01 5.0000000000000000e+01 ylo yhi
-1.0000000000000000e+01 5.0000000000000000e+01 zlo zhi

Masses

1 15.9994
2 15.9994
3 15.9994
4 15.9994
5 15.9994
6 14.0067
7 14.0067
8 14.0067
9 14.0067
10 14.0067
11 14.0067
12 12.011
13 12.011
14 13.019
15 14.027
16 15.035
17 16.043
18 14.027
19 12.011
20 1.008
21 1.008
22 1
23 32.06
24 63.546
25 63.546
26 55.847
27 65.37
28 24.305
29 40.08
30 39.948
31 18.9984
32 35.453
33 79.904
34 12.011
35 15.9994
36 22.9898
37 35.453
38 12.011
39 35.453
40 1.008
41 32.06
42 12.011
43 15.9994
44 12.011
45 35.453
46 18.9984
47 12.011
48 13.019
49 15.9994
50 12.011
51 15.9994
52 14.0067
53 15.035
54 126.904
55 35.453
56 10.811
57 78.96
58 1.008
59 35.453
60 79.904
61 15.9994
62 14.0067
63 12.011
64 12.011
65 14.0067
66 14.0067
67 15.9994
68 28.08
69 30.9738

Pair Coeffs # lj/cut/coul/cut

1 0.305714 2.76007
2 0.412295 2.62585
3 0.203061 2.95484
4 0.252656 2.84916
5 0.155394 3.16565
6 0.152915 3.13647
7 0.0700622 3.5722
8 0.152915 3.13647
9 0.104651 3.34113
10 0.152915 3.13647
11 0.152915 3.13647
12 0.0663015 3.58118
13 0.00167194 6.63949
14 0.0226791 5.01918
15 0.098122 4.07038
16 0.207254 3.74792
17 0.302012 3.70995
18 0.11455 3.95474
19 0.120138 3.74119
20 0.0282937 2.37341
21 0 0
22 0 0
23 0.455513 3.30769
24 2.039 1.5184
25 2.039 1.5184
26 0 0
27 1.107 1.68112
28 0.0747249 1.93323
29 0.121156 2.81311
30 0.238148 3.40984
31 0.10897 2.94006
32 0.300087 3.46982
33 0.69792 3.6508
34 0.243126 3.60124
35 0.131455 3.17694
36 0.00509651 3.12117
37 0.162149 4.09571
38 0.101741 3.40006
39 0.299511 3.44
40 0.0197496 2.20219
41 0.310038 3.55995
42 0.207254 3.74792
43 0.409923 2.63004
44 0.0544087 3.7739
45 0.270582 3.44757
46 0.0828967 3.07717
47 0.0970049 3.3611
48 0.117014 3.91992
49 0.203061 2.95484
50 0.105027 3.74991
51 0.210013 2.95998
52 0.169966 3.25006
53 0.207254 3.74792
54 0.836845 3.84961
55 0.329921 3.26983
56 0.0663015 3.58118
57 0.455513 3.30769
58 0 0
59 0.329921 3.26983
60 0.580843 3.89995
61 0.119432 3.40025
62 0.1399 3.9019
63 0.0734574 3.52053
64 0.245018 2.81144
65 0.142655 4.06776
66 0.219779 3.64529
67 0.119497 3.1
68 0.584786 3.38557
69 0.584786 3.38557

Bond Coeffs # harmonic

1 375.239 1
2 446.941 1
3 349.274 1.09
4 1109.29 1.12
5 600.242 1.23
6 500.418 1.25
7 499.732 1.32
8 375.003 1.33
9 448.144 1.33
10 498.877 1.33
11 450.617 1.34
12 502.116 1.34
13 450.906 1.36
14 500.679 1.38
15 399.904 1.39
16 498.726 1.39
17 400.057 1.4
18 399.792 1.43
19 450.132 1.43
20 300.222 1.435
21 449.843 1.47
22 299.976 1.48
23 399.968 1.48
24 450.226 1.48
25 450.108 1.5
26 299.844 1.52
27 400.034 1.53
28 299.851 1.61
29 299.727 1.63
30 205.976 1.78
31 449.816 1.78
32 449.828 1.83
33 300.045 1.87
34 59.9679 1.98
35 60.0382 2
36 500.307 2.04
37 63.0357 2.21
38 554.493 1
39 349.928 1.1
40 599.794 1.758
41 449.829 1.53
42 444.341 1.93799
43 599.679 1.76
44 501.026 1.265
45 448.656 1.35
46 555.129 1.63299
47 350.249 2.33839
48 600.161 2.90283
49 445.884 2.79388
50 443.815 2.91189
51 409.328 2.077
52 600.173 2.87407
53 88.4321 1.1
54 56.1663 1.84
55 513.862 1.01
56 310.707 1.41
57 442.161 1.02
58 239.006 1.46
59 513.862 1.29
60 442.161 0.972
61 812.62 1.22
62 466.061 1.22
63 239.006 1.54
64 179.254 1.56
65 227.055 1.54
66 106.358 1.76
67 131.453 1.69
68 203.155 1.75
69 203.155 1.51
70 143.403 1.57
71 179.254 0.971
72 191.205 1.5
73 262.906 1.45
74 549.713 1.52
75 83.652 1.03
76 191.205 1.74
77 191.205 1.72
78 227.055 1.64
79 203.155 1.67
80 191.205 1.66
81 215.105 1.65
82 513.862 1.31
83 155.354 1.01
84 35.8509 1.89
85 101.577 1.93
86 155.354 1.36
87 167.304 1.79
88 114.723 1.35
89 155.354 1.39
90 203.155 1.38
91 227.055 0.983
92 155.354 1.3
93 418.26 1.08
94 155.354 1.9
95 1314.53 1.16
96 143.403 1.8
97 155.354 1.42
98 478.011 0.984
99 119.503 1.08
100 119.503 1.91
101 418.26 1.03
102 525.813 1.28
103 131.453 1.22
104 143.403 1.11
105 1195.03 1.21
106 466.061 1.07
107 956.023 1.21
108 693.117 1.21
109 87.2371 1.85
110 394.359 1.11
111 109.943 2.09
112 131.453 1.82
113 99.1874 1.96
114 56.1663 1.86
115 167.304 1.21
116 167.304 1.28
117 143.403 1.71
118 131.453 1.6
119 454.111 1.21
120 41.826 1.61
121 131.453 1.94
122 155.354 1.59
123 143.403 2.1
124 119.503 2.12
125 57.3614 2.13
126 203.155 1.26
127 1195.03 1.14
128 191.205 1.23
129 788.719 1.3
130 239.006 1.31
131 59.7514 2.04
132 82.457 1.34
133 621.415 0.938
134 310.707 1.16
135 34.6558 2.07
136 60.9465 1.16
137 93.2122 2.16
138 43.021 2.23
139 23.9006 2.05
140 896.272 1.19
141 728.967 1.47
142 394.359 1.57
143 1195.03 1.18
144 54.9713 1.87
145 1063.58 1.17
146 215.105 1.13
147 59.7514 2.02
148 179.254 1.07
149 250.956 1.14
150 155.354 1.06
151 537.763 1.46
152 812.62 1.17
153 92.0172 2.15
154 239.006 1.04
155 60.9465 1.4
156 1314.53 1.11
157 466.061 1.56
158 752.868 1.49
159 501.912 1.54
160 35.8509 2.17
161 35.8509 2.27
162 669.216 1.45
163 764.818 1.25
164 848.47 1.27
165 561.663 1.16
166 1434.03 1.14
167 501.912 1.17
168 537.763 1.19
169 920.172 1.14
170 227.055 1.24
171 1434.03 1.13
172 89.6272 2.91
173 57.3614 2.24
174 418.26 0.743
175 239.006 1.2
176 111.138 2.33
177 96.7973 2.42
178 83.652 1.32
179 1159.18 1.2
180 1314.53 1.2
181 430.21 1.58
182 53.7763 1.47
183 1.55354 2.77
184 5.13862 2.25
185 100.382 2.18
186 50.1912 1.52
187 93.2122 2.19
188 27.4857 1.48
189 1912.05 1.07
190 8.60421 2.8
191 87.2371 2.52
192 0.669216 2.79
193 812.62 1.16
194 1.79254 2.68
195 406.31 1.59
196 119.503 1.18
197 34.6558 2.54
198 1792.54 1.1
199 824.57 1.29
200 33.4608 2.44
201 107.553 2.41
202 112.333 2.36
203 20.3155 1.43
204 2.27055 2.57
205 19.1205 2.47
206 0.764818 2.71
207 1553.54 1.12
208 3.70459 2.75
209 501.912 1.14
210 0.717017 2.86
211 10.5163 2.64
212 1912.05 0.985
213 1.91205 2.61
214 7.40918 2.62
215 59.7514 2.46
216 3.58509 2.66
217 1.31453 2.72
218 58.5564 1.63
219 573.614 1.12
220 37.0459 2.32
221 16.7304 1.44
222 1553.54 1.16
223 7.17017 2.69
224 10.0382 2.49
225 3.22658 2.92
226 0.82457 2.29
227 9.79924 2.4
228 1.03967 2.37
229 1.55354 2.94
230 5.85564 2.95
231 1.67304 2.96
232 0.0131453 2.56
233 5.25813 2.59
234 15.5354 2.38
235 836.52 1.12
236 1.91205 2.5
237 2.39006 2.3
238 585.564 1.04
239 3.34608 2.99
240 0.967973 2.34
241 1.07553 2.98
242 2.27055 2.74
243 1063.58 1.16
244 812.62 1.5
245 1.31453 2.84
246 0.322658 2.82
247 908.222 1.23
248 466.061 1.05
249 3.34608 2.88
250 1434.03 1.18
251 1673.04 1.15
252 6.33365 2.9
253 0 0

Angle Coeffs # harmonic

1 45.3116 90
2 50.0917 90
3 47.7712 96
4 54.9551 100
5 47.5559 103
6 55.0345 104
7 50.1709 108
8 30.1731 109.5
9 33.8897 109.5
10 40.2609 109.5
11 45.0394 109.5
12 47.694 109.5
13 55.1272 109.5
14 47.635 109.6
15 55.1139 111
16 55.0997 113
17 4.824 115
18 45.0699 115
19 59.7937 115
20 44.8085 116
21 59.7719 116
22 60.1639 117
23 34.88 120
24 39.8095 120
25 45.1871 120
26 47.4278 120
27 50.1166 120
28 59.9756 120
29 69.8346 120
30 60.0726 121
31 60.091 122
32 34.8146 123
33 59.8929 124
34 30.0075 125
35 60.0779 125
36 44.9139 126
37 49.998 126
38 60.166 126
39 50.1189 132
40 47.5187 155
41 28.4971 180
42 45.9951 109.5
43 52.4767 107.57
44 65.472 111.3
45 55.0189 97.4
46 55.0247 106.75
47 47.5019 108.53
48 65.5335 109.5
49 54.9566 107.6
50 47.4817 109.5
51 54.9931 110.3
52 55.0234 111.4
53 60.044 117.2
54 60.0023 121.4
55 48.24 180
56 180.46 109
57 192.229 106
58 145.153 126
59 145.153 96.2
60 156.922 114
61 203.998 119
62 239.306 130
63 298.152 107
64 156.922 134
65 239.306 101
66 286.382 113
67 368.766 134
68 356.997 119
69 333.459 126
70 251.075 89.6
71 380.536 114
72 286.382 135
73 145.153 88.3
74 133.384 60
75 380.536 179
76 251.075 180
77 470.766 178
78 47.0766 59.9
79 47.0766 60.3
80 251.075 124
81 706.149 118
82 117.691 144
83 627.688 123
84 470.766 118
85 333.459 94.8
86 90.2301 175
87 156.922 82.8
88 117.691 77.6
89 239.306 145
90 251.075 50.8
91 380.536 104
92 262.844 84.4
93 215.768 63.3
94 215.768 61
95 298.152 173
96 192.229 173
97 82.384 50.9
98 431.535 127
99 62.7688 67.8
100 156.922 180
101 588.457 118
102 30.1731 110
103 227.537 94.8
104 431.535 173
105 34.5228 78.5
106 70.6149 138
107 70.6149 168
108 156.922 167
109 18.046 149
110 333.459 144
111 356.997 148
112 321.69 144
113 356.997 148
114 321.69 147
115 333.459 144
116 5099.96 60.8
117 1451.53 68
118 298.152 161
119 156.922 155
120 309.921 154
121 215.768 75.3
122 309.921 64.7
123 549.227 173
124 3334.59 45.8
125 863.071 123
126 549.227 123
127 470.766 166
128 380.536 166
129 203.998 139
130 66.6918 161
131 7.45379 44.9
132 25.1075 84.8
133 192.229 161
134 333.459 70.4
135 627.688 173
136 1.92229 51.6
137 21.5768 73.3
138 7.45379 174
139 470.766 132
140 145.153 69.9
141 15.6922 144
142 1922.29 97.9
143 392.305 155
144 588.457 104
145 117.691 149
146 509.996 157
147 286.382 166
148 333.459 89.8
149 392.305 79.1
150 6669.18 45.2
151 470.766 101
152 745.379 125
153 168.691 49.6
154 509.996 112

Dihedral Coeffs # harmonic

1 0.638145 -1 1
2 0.81501 -1 1
3 1.18786 -1 1
4 1.40057 -1 1
5 2.2347 -1 1
6 2.2586 -1 1
7 0.666826 1 1
8 1.27868 1 1
9 0.365679 -1 2
10 1.40057 -1 2
11 1.69933 -1 2
12 3.9914 -1 2
13 5.73614 -1 2
14 8.00669 -1 2
15 9.99044 -1 2
16 0 1 2
17 0.0999044 1 2
18 0.499522 1 2
19 0.750478 1 2
20 1.21654 1 2
21 3.9914 1 2
22 0.250956 1 3
23 0.301147 1 3
24 0.310707 1 3
25 0.604685 1 3
26 0.700287 1 3
27 0.762428 1 3
28 0.872371 1 3
29 0.901052 1 3
30 0.932122 1 3
31 0.999044 1 3
32 1.12094 1 3
33 1.30019 1 3
34 1.41491 1 3
35 1.83795 1 3
36 2.06023 1 3
37 2.27055 1 3
38 0 1 4
39 0.239006 -1 6
40 0.239006 1 6
41 0.901052 1 6
42 0.83652 -1 2
43 0.669216 1 3
44 0.167304 -1 6
45 0.0956023 1 6
46 0.239006 -1 3
47 0 1 1

Improper Coeffs # harmonic

1 20.0075 0
2 40.0151 35.2644
3 80.0302 0
4 20.0075 180
5 40.0151 -35.2644

Atoms # full

8 1 20 2.3400000000000001e-01 -2.3709311050977905e-01 -2.2907766042995004e+00 -3.5805787985019460e-04 0 0 0
17 2 20 2.3400000000000001e-01 -2.3692332919273970e-01 -2.2906824040632263e+00 4.9994826306330618e+00 0 0 0
908 101 20 2.3400000000000001e-01 4.7591393664695723e+00 -2.2915177899822301e+00 -2.7556636028623849e-04 0 0 0
917 102 20 2.3400000000000001e-01 4.7589650883057155e+00 -2.2913895407802540e+00 4.9996155558037954e+00 0 0 0
1808 201 20 2.3400000000000001e-01 9.7591403701217594e+00 -2.2914242148928583e+00 -2.3373605605972656e-04 0 0 0
1817 202 20 2.3400000000000001e-01 9.7588240993409983e+00 -2.2911669536326023e+00 4.9996282302398862e+00 0 0 0
2708 301 20 2.3400000000000001e-01 1.4759450552964330e+01 -2.2915182821433673e+00 -3.0725065734689855e-04 0 0 0
2717 302 20 2.3400000000000001e-01 1.4759281473109720e+01 -2.2913020237962698e+00 4.9996285396304803e+00 0 0 0
3608 401 20 2.3400000000000001e-01 1.9759450919651627e+01 -2.2915185305542676e+00 -3.0739574902387506e-04 0 0 0
3617 402 20 2.3400000000000001e-01 1.9759281952029419e+01 -2.2913023652451172e+00 4.9996284642355002e+00 0 0 0
4508 501 20 2.3400000000000001e-01 2.4759451014644746e+01 -2.2915185821687110e+00 -3.0743000247253203e-04 0 0 0
4517 502 20 2.3400000000000001e-01 2.4759282091163879e+01 -2.2913024450260324e+00 4.9996284514434599e+00 0 0 0
5408 601 20 2.3400000000000001e-01 2.9759451019232156e+01 -2.2915185759718466e+00 -3.0743635828061700e-04 0 0 0
5417 602 20 2.3400000000000001e-01 2.9759282080956943e+01 -2.2913024393651127e+00 4.9996284459885345e+00 0 0 0
6308 701 20 2.3400000000000001e-01 3.4759441507353898e+01 -2.2915252282280947e+00 -3.0803790374469756e-04 0 0 0
6317 702 20 2.3400000000000001e-01 3.4759271452549541e+01 -2.2913103167630613e+00 4.9996283897077216e+00 0 0 0
7208 801 20 2.3400000000000001e-01 3.9759438614974258e+01 -2.2915415950198854e+00 -2.6931232143454300e-04 0 0 0
7217 802 20 2.3400000000000001e-01 3.9759291523324812e+01 -2.2913024640781301e+00 4.9996600626132777e+00 0 0 0
8108 901 20 2.3400000000000001e-01 4.4762886703192862e+01 -2.2874503163985467e+00 -2.6965563874530290e-04 0 0 0
8117 902 20 2.3400000000000001e-01 4.4762704847395888e+01 -2.2871891607449291e+00 4.9996695311248533e+00 0 0 0
1 1 63 -1.2600000000000000e-01 1.3316796615815645e+00 6.5336521591381169e-01 3.6456377992566245e-04 0 0 0
2 1 63 -2.9099999999999998e-01 6.5083806879492015e-02 8.9747082414541235e-01 -4.8579507163299686e-04 0 0 0
3 1 23 5.3999999999999999e-02 -1.1821748690237219e+00 -9.1309798091245176e-02 8.0060244092819920e-04 0 0 0
4 1 63 -2.9099999999999998e-01 3.4067977141093275e-02 -1.2425418079009589e+00 -2.6048828018902407e-04 0 0 0
5 1 63 -1.2600000000000000e-01 1.2903417758275535e+00 -7.4918662529047098e-01 5.7286159931416896e-04 0 0 0
6 1 20 1.5600000000000000e-01 2.1601114403792723e+00 1.3745551146792720e+00 -1.0646811753896221e-03 0 0 0
7 1 20 2.3400000000000001e-01 -3.6170497682616010e-01 1.7333005571878670e+00 4.1021597855193362e-04 0 0 0
9 1 20 1.5600000000000000e-01 2.1548217051951086e+00 -1.3720378057174298e+00 -1.0543175527870747e-03 0 0 0
10 2 63 -1.2600000000000000e-01 1.3316279117185534e+00 6.5339246280938690e-01 5.0002265847297558e+00 0 0 0
11 2 63 -2.9099999999999998e-01 6.4940354568773007e-02 8.9747809120350153e-01 4.9997220309506059e+00 0 0 0
12 2 23 5.3999999999999999e-02 -1.1818840882169870e+00 -9.1211633405031689e-02 4.9999478901909287e+00 0 0 0
13 2 63 -2.9099999999999998e-01 3.4067349638335263e-02 -1.2428587640378901e+00 4.9998327034335004e+00 0 0 0
14 2 63 -1.2600000000000000e-01 1.2902825868781069e+00 -7.4928814851023939e-01 5.0004046408566323e+00 0 0 0
15 2 20 1.5600000000000000e-01 2.1599535042809088e+00 1.3746136444288028e+00 4.9985491560892594e+00 0 0 0
16 2 20 2.3400000000000001e-01 -3.6119172384343556e-01 1.7333773628928488e+00 4.9998459591413491e+00 0 0 0
18 2 20 1.5600000000000000e-01 2.1548143165740314e+00 -1.3715596044342635e+00 4.9985199044872273e+00 0 0 0
91 11 63 -1.2600000000000000e-01 1.3492475885567727e+00 5.6789337549716148e+00 6.1827534280405614e-04 0 0 0
92 11 63 -2.9099999999999998e-01 7.0735880609851309e-02 5.9090451746969697e+00 -3.5883506408288798e-04 0 0 0
93 11 23 5.3999999999999999e-02 -1.1902881499954658e+00 5.0000569412109730e+00 8.2378001787448366e-04 0 0 0
94 11 63 -2.9099999999999998e-01 7.0861409459559530e-02 4.0911503397348659e+00 -6.8610494265989544e-04 0 0 0
95 11 63 -1.2600000000000000e-01 1.3492240642173099e+00 4.3215684845393048e+00 5.7760243681664967e-04 0 0 0
96 11 20 1.5600000000000000e-01 2.1599647553670036e+00 6.3814141959773183e+00 -1.2262636636756140e-03 0 0 0
98 11 20 2.3400000000000001e-01 -3.6014159252177164e-01 3.2636112544604976e+00 6.8696334700565041e-04 0 0 0
99 11 20 1.5600000000000000e-01 2.1598962065402709e+00 3.6188842431473169e+00 -1.0273767074649429e-03 0 0 0
100 12 63 -1.2600000000000000e-01 1.3492048939292416e+00 5.6790655222525972e+00 5.0003387313566670e+00 0 0 0
101 12 63 -2.9099999999999998e-01 7.0563634347542301e-02 5.9091113992299524e+00 4.9996359093578340e+00 0 0 0
102 12 23 5.3999999999999999e-02 -1.1899878423727022e+00 5.0001236748134232e+00 4.9999035539468268e+00 0 0 0
103 12 63 -2.9099999999999998e-01 7.0697334003114065e-02 4.0912170445260827e+00 4.9996314779845239e+00 0 0 0
104 12 63 -1.2600000000000000e-01 1.3491043424577438e+00 4.3216990235004378e+00 5.0004351552467927e+00 0 0 0
105 12 20 1.5600000000000000e-01 2.1597592734395636e+00 6.3814669231344920e+00 4.9985281795545653e+00 0 0 0
107 12 20 2.3400000000000001e-01 -3.5938632631089135e-01 3.2636970823685347e+00 4.9998144318119442e+00 0 0 0
108 12 20 1.5600000000000000e-01 2.1596680828981021e+00 3.6191597621443141e+00 4.9985912276070854e+00 0 0 0
901 101 63 -1.2600000000000000e-01 6.3443880176694440e+00 6.5735957371910758e-01 5.4341536280192479e-04 0 0 0
902 101 63 -2.9099999999999998e-01 5.1046462481874864e+00 9.1828929750765109e-01 -2.0221391435898113e-04 0 0 0
903 101 23 5.3999999999999999e-02 4.0159514118056290e+00 -8.8587103093660552e-02 1.3221566008636235e-03 0 0 0
904 101 63 -2.9099999999999998e-01 5.0721006128570405e+00 -1.2599679990887811e+00 8.6596508032247600e-05 0 0 0
905 101 63 -1.2600000000000000e-01 6.3024681903766506e+00 -7.5172459216559073e-01 6.5946683275642170e-04 0 0 0
907 101 20 2.3400000000000001e-01 4.6320854180315187e+00 1.7313895778475872e+00 3.7241051860880943e-04 0 0 0
910 102 63 -1.2600000000000000e-01 6.3443813180607824e+00 6.5741821462886718e-01 5.0002711429269935e+00 0 0 0
911 102 63 -2.9099999999999998e-01 5.1046569201465672e+00 9.1846509916633912e-01 4.9997254754363567e+00 0 0 0
912 102 23 5.3999999999999999e-02 4.0160860397083873e+00 -8.8451141567800873e-02 5.0000843335394656e+00 0 0 0
913 102 63 -2.9099999999999998e-01 5.0721872507129273e+00 -1.2603805722363335e+00 4.9998129850774902e+00 0 0 0
914 102 63 -1.2600000000000000e-01 6.3024144516382599e+00 -7.5183768705371234e-01 5.0003591099882403e+00 0 0 0
916 102 20 2.3400000000000001e-01 4.6320661254197883e+00 1.7313518049956902e+00 4.9999335530154747e+00 0 0 0
991 111 63 -1.2600000000000000e-01 6.3617820557875593e+00 5.6828149794968592e+00 7.6059377859215445e-04 0 0 0
992 111 63 -2.9099999999999998e-01 5.1100280420652160e+00 5.9300683019068456e+00 -1.7180748456224152e-04 0 0 0
993 111 23 5.3999999999999999e-02 4.0168289310981926e+00 5.0000326560390400e+00 1.3883627901511660e-03 0 0 0
994 111 63 -2.9099999999999998e-01 5.1101954406762884e+00 4.0702939181845199e+00 -5.0379663136000652e-04 0 0 0
995 111 63 -1.2600000000000000e-01 6.3617946859026402e+00 4.3177627369807761e+00 7.0217939367699285e-04 0 0 0
998 111 20 2.3400000000000001e-01 4.6331595939065764e+00 3.2657269806012432e+00 7.7786875170387051e-04 0 0 0
1000 112 63 -1.2600000000000000e-01 6.3617919249048001e+00 5.6829894891718258e+00 5.0003083383700471e+00 0 0 0
1001 112 63 -2.9099999999999998e-01 5.1100066466549654e+00 5.9302976185075273e+00 4.9994620249755792e+00 0 0 0
1002 112 23 5.3999999999999999e-02 4.0169249116002090e+00 5.0001124006311448e+00 5.0000275893120323e+00 0 0 0
1003 112 63 -2.9099999999999998e-01 5.1101845116549747e+00 4.0701976031467764e+00 4.9996068283801636e+00 0 0 0
1004 112 63 -1.2600000000000000e-01 6.3617448382547579e+00 4.3178937264505235e+00 5.0003990514042327e+00 0 0 0
1007 112 20 2.3400000000000001e-01 4.6333122272470266e+00 3.2659158741985794e+00 4.9999706795942078e+00 0 0 0
906 101 20 1.5600000000000000e-01 7.1623541316902033e+00 1.3752226139871551e+00 -1.2445627546381916e-03 0 0 0
909 101 20 1.5600000000000000e-01 7.1570469340373357e+00 -1.3725064963392544e+00 -1.1634113098361256e-03 0 0 0
915 102 20 1.5600000000000000e-01 7.1622075213799281e+00 1.3752876009002861e+00 4.9984682051627454e+00 0 0 0
918 102 20 1.5600000000000000e-01 7.1570386497728027e+00 -1.3720243506366976e+00 4.9984922181118714e+00 0 0 0
996 111 20 1.5600000000000000e-01 7.1622132518342543e+00 6.3821061030742738e+00 -1.4470217304185255e-03 0 0 0
999 111 20 1.5600000000000000e-01 7.1620768908827213e+00 3.6180579191644431e+00 -1.1713720805519047e-03 0 0 0
1005 112 20 1.5600000000000000e-01 7.1620209090780218e+00 6.3821700161737098e+00 4.9984290162737661e+00 0 0 0
1008 112 20 1.5600000000000000e-01 7.1618553606729156e+00 3.6183304205794515e+00 4.9985622748868836e+00 0 0 0
1801 201 63 -1.2600000000000000e-01 1.1344219658289081e+01 6.5740934104658399e-01 7.4794814208247297e-04 0 0 0
1802 201 63 -2.9099999999999998e-01 1.0104343629367797e+01 9.1840684111112703e-01 1.6758328469226234e-04 0 0 0
1803 201 23 5.3999999999999999e-02 9.0164387864297417e+00 -8.8535995712800103e-02 1.3754077905897702e-03 0 0 0
1804 201 63 -2.9099999999999998e-01 1.0071930924254142e+01 -1.2598598878026228e+00 3.4583654311258098e-04 0 0 0
1805 201 63 -1.2600000000000000e-01 1.1302309424030996e+01 -7.5166484456064486e-01 8.1100712353415609e-04 0 0 0
1806 201 20 1.5600000000000000e-01 1.2162292879598642e+01 1.3751911077322296e+00 -1.2445752680514547e-03 0 0 0
1807 201 20 2.3400000000000001e-01 9.6319585340887031e+00 1.7314948862270483e+00 2.9566183985291401e-04 0 0 0
1809 201 20 1.5600000000000000e-01 1.2156988787220250e+01 -1.3724890387388951e+00 -1.1894581433508720e-03 0 0 0
1810 202 63 -1.2600000000000000e-01 1.1344217277925070e+01 6.5747033343816275e-01 5.0004409399592635e+00 0 0 0
1811 202 63 -2.9099999999999998e-01 1.0104279401862257e+01 9.1863736150655906e-01 4.9999682927013582e+00 0 0 0
1812 202 23 5.3999999999999999e-02 9.0165496147863013e+00 -8.8372563681695410e-02 5.0001303084172743e+00 0 0 0
1813 202 63 -2.9099999999999998e-01 1.0072023752068302e+01 -1.2602462982380505e+00 5.0000022819552647e+00 0 0 0
1814 202 63 -1.2600000000000000e-01 1.1302263452309489e+01 -7.5177731363911293e-01 5.0004788299068377e+00 0 0 0
1815 202 20 1.5600000000000000e-01 1.2162097792897338e+01 1.3752555602008469e+00 4.9984702522118987e+00 0 0 0
1816 202 20 2.3400000000000001e-01 9.6319643479447965e+00 1.7314852104110949e+00 4.9999689609474256e+00 0 0 0
1818 202 20 1.5600000000000000e-01 1.2156969273388663e+01 -1.3720119972944349e+00 4.9984930205374916e+00 0 0 0
1891 211 63 -1.2600000000000000e-01 1.1361641338030813e+01 5.6829127265141128e+00 9.7497978525045055e-04 0 0 0
1892 211 63 -2.9099999999999998e-01 1.0109813104852913e+01 5.9301433432175390e+00 2.2873471763264788e-04 0 0 0
1893 211 23 5.3999999999999999e-02 9.0173026034803030e+00 5.0000843590411614e+00 1.4785585345099936e-03 0 0 0
1894 211 63 -2.9099999999999998e-01 1.0109760798081965e+01 4.0705372883846422e+00 8.0658957924092261e-05 0 0 0
1895 211 63 -1.2600000000000000e-01 1.1361514906683926e+01 4.3178690797994514e+00 9.1334122131725697e-04 0 0 0
1896 211 20 1.5600000000000000e-01 1.2162211516471206e+01 6.3821119635789625e+00 -1.4719452343898416e-03 0 0 0
1898 211 20 2.3400000000000001e-01 9.6332677546323922e+00 3.2656750692838439e+00 5.2380693582584209e-04 0 0 0
1899 211 20 1.5600000000000000e-01 1.2162028679858834e+01 3.6180947921393556e+00 -1.2159066294661677e-03 0 0 0
1900 212 63 -1.2600000000000000e-01 1.1361697960650586e+01 5.6831166191983380e+00 5.0004925313353423e+00 0 0 0
1901 212 63 -2.9099999999999998e-01 1.0109836139207282e+01 5.9304574717269682e+00 4.9998224664675739e+00 0 0 0
1902 212 23 5.3999999999999999e-02 9.0174024964331227e+00 5.0001981314240735e+00 5.0001139508019952e+00 0 0 0
1903 212 63 -2.9099999999999998e-01 1.0109689036354039e+01 4.0705234765238574e+00 5.0000004673007590e+00 0 0 0
1904 212 63 -1.2600000000000000e-01 1.1361454282545477e+01 4.3180598339136083e+00 5.0005778685984810e+00 0 0 0
1905 212 20 1.5600000000000000e-01 1.2162008096521316e+01 6.3821962744020473e+00 4.9984296298716986e+00 0 0 0
1907 212 20 2.3400000000000001e-01 9.6334141516265177e+00 3.2658450241167452e+00 4.9998434980746680e+00 0 0 0
1908 212 20 1.5600000000000000e-01 1.2161822950925133e+01 3.6183716571052140e+00 4.9985626126839264e+00 0 0 0
2702 301 63 -2.9099999999999998e-01 1.5104097502497988e+01 9.1836593026650071e-01 2.3826432214111269e-04 0 0 0
2703 301 23 5.3999999999999999e-02 1.4016273534026215e+01 -8.8540524305301405e-02 1.3676381551634984e-03 0 0 0
2704 301 63 -2.9099999999999998e-01 1.5071760200952824e+01 -1.2598229791734672e+00 3.9546060128119024e-04 0 0 0
2707 301 20 2.3400000000000001e-01 1.4632409858690849e+01 1.7315113656321544e+00 1.1860203355754654e-04 0 0 0
2711 302 63 -2.9099999999999998e-01 1.5103985995084196e+01 9.1856498275490939e-01 4.9999679566349400e+00 0 0 0
2712 302 23 5.3999999999999999e-02 1.4016358536934412e+01 -8.8379117062858656e-02 5.0001282516503345e+00 0 0 0
2713 302 63 -2.9099999999999998e-01 1.5071801060820135e+01 -1.2602096916741301e+00 5.0000022249255558e+00 0 0 0
2716 302 20 2.3400000000000001e-01 1.4632751841849750e+01 1.7315175596910961e+00 4.9999696186297209e+00 0 0 0
2792 311 63 -2.9099999999999998e-01 1.5109495882826069e+01 5.9300641129880614e+00 2.9859688791387820e-04 0 0 0
2793 311 23 5.3999999999999999e-02 1.4017107227826946e+01 5.0000829573418404e+00 1.4779459646756402e-03 0 0 0
2794 311 63 -2.9099999999999998e-01 1.5109442847554243e+01 4.0706137241804647e+00 1.6569796084807105e-04 0 0 0
2798 311 20 2.3400000000000001e-01 1.4633824048681648e+01 3.2656237849367176e+00 3.5390000296259575e-04 0 0 0
2801 312 63 -2.9099999999999998e-01 1.5109477179283591e+01 5.9303405049143834e+00 4.9998239174603558e+00 0 0 0
2802 312 23 5.3999999999999999e-02 1.4017199208076336e+01 5.0002009633290623e+00 5.0001243876115522e+00 0 0 0
2803 312 63 -2.9099999999999998e-01 1.5109327441926746e+01 4.0706326618936570e+00 5.0000022215472137e+00 0 0 0
2807 312 20 2.3400000000000001e-01 1.4634278685544114e+01 3.2657911726473050e+00 4.9998433715045705e+00 0 0 0
2701 301 63 -1.2600000000000000e-01 1.6344084795584038e+01 6.5740874915003378e-01 7.6488595569578453e-04 0 0 0
2705 301 63 -1.2600000000000000e-01 1.6302215649041806e+01 -7.5165680718431205e-01 8.1463147180364359e-04 0 0 0
2706 301 20 1.5600000000000000e-01 1.7162254968137812e+01 1.3751793850779874e+00 -1.2445463506847935e-03 0 0 0
2709 301 20 1.5600000000000000e-01 1.7156964787419625e+01 -1.3724813893250680e+00 -1.1899433096902532e-03 0 0 0
2710 302 63 -1.2600000000000000e-01 1.6344043912632685e+01 6.5745982582664275e-01 5.0004408966229397e+00 0 0 0
2714 302 63 -1.2600000000000000e-01 1.6302137719232149e+01 -7.5176961783242757e-01 5.0004787805939266e+00 0 0 0
2715 302 20 1.5600000000000000e-01 1.7162044945050503e+01 1.3752389716418396e+00 4.9984702154736684e+00 0 0 0
2718 302 20 1.5600000000000000e-01 1.7156936803382042e+01 -1.3720011913162677e+00 4.9984929928106361e+00 0 0 0
2791 311 63 -1.2600000000000000e-01 1.6361466898457053e+01 5.6829022754995036e+00 9.8891925417589539e-04 0 0 0
2795 311 63 -1.2600000000000000e-01 1.6361402064084984e+01 4.3178495113034199e+00 8.9355532603245091e-04 0 0 0
2796 311 20 1.5600000000000000e-01 1.7162163886167846e+01 6.3820954576345015e+00 -1.4719200791217190e-03 0 0 0
2799 311 20 1.5600000000000000e-01 1.7161908749696277e+01 3.6180801844964208e+00 -1.1853926519099002e-03 0 0 0
2800 312 63 -1.2600000000000000e-01 1.6361486223875183e+01 5.6830979002804023e+00 5.0004914544561219e+00 0 0 0
2804 312 63 -1.2600000000000000e-01 1.6361365930481384e+01 4.3180185541455476e+00 5.0005767918409783e+00 0 0 0
2805 312 20 1.5600000000000000e-01 1.7161945541048343e+01 6.3821745011900157e+00 4.9984295853840228e+00 0 0 0
2808 312 20 1.5600000000000000e-01 1.7161615853431975e+01 3.6183313537128461e+00 4.9985625657701371e+00 0 0 0
3601 401 63 -1.2600000000000000e-01 2.1344084525163794e+01 6.5740873353637252e-01 7.6498409851353220e-04 0 0 0
3602 401 63 -2.9099999999999998e-01 2.0104096238382617e+01 9.1836574241366464e-01 2.3852270425582436e-04 0 0 0
3603 401 23 5.3999999999999999e-02 1.9016254673824594e+01 -8.8538621215344754e-02 1.3675199979614962e-03 0 0 0
3604 401 63 -2.9099999999999998e-01 2.0071759003277908e+01 -1.2598223570910452e+00 3.9564567943802171e-04 0 0 0
3605 401 63 -1.2600000000000000e-01 2.1302215435183612e+01 -7.5165662278700207e-01 8.1470880696273853e-04 0 0 0
3606 401 20 1.5600000000000000e-01 2.2162255133737439e+01 1.3751793157189995e+00 -1.2446380739796399e-03 0 0 0
3607 401 20 2.3400000000000001e-01 1.9632410502641594e+01 1.7315113346056932e+00 1.1833977045954132e-04 0 0 0
3609 401 20 1.5600000000000000e-01 2.2156964865191174e+01 -1.3724814584665894e+00 -1.1900136766009720e-03 0 0 0
3610 402 63 -1.2600000000000000e-01 2.1344043554501155e+01 6.5745979925836984e-01 5.0004409464388884e+00 0 0 0
3611 402 63 -2.9099999999999998e-01 2.0103984268042296e+01 9.1856472166189629e-01 4.9999680961639141e+00 0 0 0
3612 402 23 5.3999999999999999e-02 1.9016332857975033e+01 -8.8376470286897130e-02 5.0001282316087448e+00 0 0 0
3613 402 63 -2.9099999999999998e-01 2.0071799413560026e+01 -1.2602088242906007e+00 5.0000023212549527e+00 0 0 0
3614 402 63 -1.2600000000000000e-01 2.1302137437927687e+01 -7.5176936151915352e-01 5.0004788182054378e+00 0 0 0
3615 402 20 1.5600000000000000e-01 2.2162045167665369e+01 1.3752388894883252e+00 4.9984701653828223e+00 0 0 0
3616 402 20 2.3400000000000001e-01 1.9632752696551464e+01 1.7315175240964971e+00 4.9999694739394958e+00 0 0 0
3618 402 20 1.5600000000000000e-01 2.2156936905142228e+01 -1.3720012924744838e+00 4.9984929572946823e+00 0 0 0
3691 411 63 -1.2600000000000000e-01 2.1361466432978713e+01 5.6829021868499252e+00 9.8904850458702599e-04 0 0 0
3692 411 63 -2.9099999999999998e-01 2.0109493862391613e+01 5.9300634788899940e+00 2.9894102993279712e-04 0 0 0
3693 411 23 5.3999999999999999e-02 1.9017075851082613e+01 5.0000831874427298e+00 1.4778140683581560e-03 0 0 0
3694 411 63 -2.9099999999999998e-01 2.0109440838469229e+01 4.0706145339175954e+00 1.6603428152204999e-04 0 0 0
3695 411 63 -1.2600000000000000e-01 2.1361401549571561e+01 4.3178497030898848e+00 8.9367069071101123e-04 0 0 0
3696 411 20 1.5600000000000000e-01 2.2162164088755315e+01 6.3820954284351474e+00 -1.4720435868056849e-03 0 0 0
3698 411 20 2.3400000000000001e-01 1.9633824912585602e+01 3.2656234495982974e+00 3.5358994718864421e-04 0 0 0
3699 411 20 1.5600000000000000e-01 2.2161908853130257e+01 3.6180800637233728e+00 -1.1854950150736981e-03 0 0 0
3700 412 63 -1.2600000000000000e-01 2.1361485564070993e+01 5.6830978078804213e+00 5.0004915199035622e+00 0 0 0
3701 412 63 -2.9099999999999998e-01 2.0109474528896612e+01 5.9303396666859500e+00 4.9998240932434346e+00 0 0 0
3702 412 23 5.3999999999999999e-02 1.9017159263463341e+01 5.0002014492264371e+00 5.0001243657388263e+00 0 0 0
3703 412 63 -2.9099999999999998e-01 2.0109324790721040e+01 4.0706337375818666e+00 5.0000023944615872e+00 0 0 0
3704 412 63 -1.2600000000000000e-01 2.1361309199466682e+01 4.3180521252707615e+00 5.0005519460048697e+00 0 0 0
3705 412 20 1.5600000000000000e-01 2.2161945809756922e+01 6.3821744603243262e+00 4.9984295247607173e+00 0 0 0
3707 412 20 2.3400000000000001e-01 1.9634279806439611e+01 3.2657907381515532e+00 4.9998432039555123e+00 0 0 0
3708 412 20 1.5600000000000000e-01 2.2161615949117923e+01 3.6183311219502157e+00 4.9985625036641999e+00 0 0 0
4503 501 23 5.3999999999999999e-02 2.4016255039867538e+01 -8.8539353320161676e-02 1.3674763054014024e-03 0 0 0
4512 502 23 5.3999999999999999e-02 2.4016333590115501e+01 -8.8377927183362570e-02 5.0001282217380609e+00 0 0 0