 Coarse-grained water

        2180 atoms

           1 atom types

  0.0000000E+00   40.310000000000      xlo xhi
  0.0000000E+00   40.310000000000      ylo yhi
  0.0000000E+00   40.310000000000      zlo zhi

 Masses

1 18.01540

 Atoms

1 1 28.15 5.43 2.37
2 1 1.89 29.57 17.61
3 1 8.92 35.56 8.24
4 1 23.07 9.6 4.71
5 1 16.88 8.94 3.88
6 1 25.71 12.77 10.56
7 1 27.88 33.28 0.13
8 1 32.87 2.05 13.68
9 1 4.9 21.83 17.51
10 1 9.67 31.08 18.43
11 1 12.33 3.49 10.91
12 1 6.63 15.81 34.55
13 1 39.51 20.47 22.88
14 1 39.77 31.73 9.06
15 1 5.37 8.94 36.46
16 1 21.29 38.53 34.68
17 1 19.87 26.77 37.62
18 1 26.58 31.67 2.28
19 1 12.31 33.36 10.98
20 1 7.31 14.1 16.54
21 1 33.88 25.84 16.77
22 1 11.15 3.07 39.92
23 1 31.71 31.95 22.67
24 1 5.96 35.07 12.3
25 1 29.04 1.74 9.46
26 1 15.39 26.86 2.03
27 1 3.89 21.48 28.77
28 1 4.55 28 24.31
29 1 9.68 39.92 29.64
30 1 2.56 39.39 29.87
31 1 4.96 22.8 6.23
32 1 27.95 35.11 9.81
33 1 32.54 30.32 30.25
34 1 22.92 30.33 17.3
35 1 2.19 20.25 39.29
36 1 9.46 38.15 6.95
37 1 24.09 28.85 7.73
38 1 37.11 38.88 33.14
39 1 34.92 19.87 8.24
40 1 1.35 37.99 38.85
41 1 32.89 32.89 18.59
42 1 33.37 16.03 31.41
43 1 5.12 6.54 32.31
44 1 5.08 3.64 21.78
45 1 7.09 10.72 19.11
46 1 28.04 14.44 20.27
47 1 29.72 39.28 29.97
48 1 21.7 32.63 31
49 1 30.63 8.94 3.41
50 1 2.4 14.84 25.34
51 1 21.28 39.44 18.92
52 1 36.16 39.93 14.43
53 1 24.16 24.14 12.8
54 1 31.77 10.47 15.68
55 1 40.24 11.88 33.43
56 1 6.04 13.67 40.28
57 1 15.37 35.89 6.93
58 1 12.31 2.22 14.71
59 1 3.45 4.81 24.87
60 1 15.89 2.52 17.05
61 1 37.05 36.2 6.73
62 1 37.77 27.1 40.29
63 1 8.26 20.33 40.3
64 1 8.21 35.58 17.17
65 1 33.38 13.89 22.1
66 1 14.54 1.65 13
67 1 19.77 34.89 17.51
68 1 5.63 4.22 38.75
69 1 7.57 25.76 13.71
70 1 9.34 33.92 35.38
71 1 21.16 8.59 14.75
72 1 23.28 40.22 11.38
73 1 12.98 34.79 23.38
74 1 22.32 33.39 5.32
75 1 3.29 32.4 20.24
76 1 37.94 39.82 1.79
77 1 11.11 14.4 23.01
78 1 25.56 17.14 16.84
79 1 2.5 24.74 20.28
80 1 16.92 38.37 13.03
81 1 6.31 25.51 39.6
82 1 24.02 19.66 29.05
83 1 22.16 9.5 25.43
84 1 20.06 34.31 4.26
85 1 21.98 8.67 28.06
86 1 14.65 27.63 8.34
87 1 39.75 3.87 37.01
88 1 29.52 7.34 5.31
89 1 27.59 15.89 34.02
90 1 37.46 39.45 24.86
91 1 23.7 24.29 28.03
92 1 12.7 16.53 23.14
93 1 16.53 27.86 28.85
94 1 31.46 2.34 8.32
95 1 34.06 21.24 23.89
96 1 5.13 15.74 8.36
97 1 30.87 6.02 22.95
98 1 36.07 36.74 9.2
99 1 25.07 21.07 37.78
100 1 33.51 4.87 13.01
101 1 29.78 18.79 12.77
102 1 24.96 0.14 39
103 1 37.61 31.79 2.54
104 1 2.6 6.8 33.47
105 1 25.7 31.73 18.31
106 1 9.46 15.24 25.42
107 1 22.55 25.15 2.19
108 1 19.02 19.88 31.38
109 1 9.45 31.64 26.52
110 1 6.81 9.42 14.63
111 1 16.51 5.2 28.36
112 1 22.34 24.75 39.56
113 1 38.05 29.46 9.08
114 1 35.53 15.9 10.32
115 1 25.65 34.02 10.62
116 1 15.54 5.41 39.26
117 1 24.49 12.82 13.05
118 1 1.59 37.43 33.98
119 1 19.54 9.57 11.79
120 1 9.87 14.97 18.72
121 1 29.25 33.97 7.65
122 1 27.38 35.14 29.8
123 1 37.04 2.31 21.89
124 1 19.88 14.71 0.16
125 1 11.18 14.76 33.54
126 1 0.31 25.88 33.13
127 1 34.37 25.86 23.37
128 1 39.31 33.98 34.24
129 1 7.07 30.63 21.88
130 1 1.84 11.04 19.74
131 1 19.24 32.44 36.7
132 1 16.75 34.63 15.24
133 1 16.7 35.57 27.65
134 1 39.99 39.7 23.85
135 1 30.96 5.99 19.62
136 1 23.57 12.97 20.12
137 1 5.01 15.24 38.43
138 1 6.18 11.52 23.31
139 1 1.2 25.5 23.34
140 1 4.21 28.82 1.46
141 1 5.75 27.29 7.3
142 1 27.92 6.98 23.45
143 1 9.15 1.54 34.15
144 1 34.75 32.29 27.51
145 1 26.68 2.35 23.94
146 1 39.42 8.27 20.16
147 1 7.79 9.33 22.77
148 1 31.06 35.2 19.46
149 1 11.54 4.67 26.09
150 1 33.18 39.35 31.81
151 1 30.33 3.29 15.94
152 1 23.14 1.23 0.63
153 1 26.88 10.4 19.37
154 1 28.05 33.13 18.49
155 1 38.01 15.82 25.45
156 1 22.25 3.68 0.94
157 1 32.59 27.97 11.7
158 1 19.34 10.35 0.04
159 1 22.11 15.86 4.28
160 1 26.36 22.83 31.16
161 1 3.06 18.32 37.78
162 1 40.09 35.03 8.48
163 1 21.16 33.49 20.47
164 1 29.72 20.68 8.16
165 1 26.69 0.95 7.66
166 1 4.36 6.29 21.23
167 1 33.25 33.67 10.95
168 1 37.61 3.19 12.78
169 1 3.67 20.74 15.36
170 1 15.08 13.71 32.57
171 1 3.46 23.93 23.49
172 1 10.95 19.59 11.53
173 1 25.78 21.44 33.42
174 1 18.47 6.67 6.45
175 1 35.64 34.59 19.88
176 1 17.59 15.36 25.79
177 1 15.43 4.01 11.33
178 1 5.27 8.17 23.05
179 1 7.67 29.64 0.37
180 1 0.87 20.32 34.75
181 1 6.88 36.88 5.76
182 1 20.34 24.38 7.17
183 1 26.8 21.98 0.01
184 1 14.44 26.89 15.94
185 1 39.04 21.21 9.92
186 1 9.17 35.46 0.44
187 1 13.5 16.85 5.53
188 1 7.11 29.15 18.2
189 1 38.26 12.59 25.31
190 1 10.24 1.48 18.77
191 1 33.18 2.38 1.16
192 1 16.2 24.25 26.38
193 1 33.29 13.63 12.99
194 1 27.51 20.08 14.54
195 1 6.29 29.7 6.26
196 1 25.77 10.73 16.75
197 1 11.78 25.53 29.47
198 1 12.27 23.41 13.74
199 1 3.42 39.94 34.29
200 1 7.02 3.27 14.05
201 1 31.3 0.85 32.3
202 1 37.93 6.07 29.87
203 1 5.77 25.58 23.27
204 1 31.44 39.96 25.39
205 1 26.92 21.18 2.73
206 1 16.98 19.47 38.21
207 1 22.64 32.01 35.43
208 1 35.79 0.89 2.21
209 1 23.86 0.93 7.29
210 1 18.31 25.71 0.84
211 1 13.25 15.49 12.96
212 1 26.93 39.16 0.34
213 1 27.57 13.3 15.79
214 1 31.46 21.51 24.6
215 1 5.01 24.72 13.16
216 1 35.86 7.47 13.82
217 1 21.76 18.77 17.32
218 1 7.3 14.8 7.05
219 1 8.68 27.46 7.61
220 1 33.26 32.81 15.8
221 1 2.98 15.09 28.2
222 1 36.21 15.33 16.12
223 1 8.64 9.26 12.27
224 1 29.2 13.15 22.29
225 1 18.42 3.04 26.52
226 1 6.99 15.72 31.56
227 1 9.33 4.45 36.82
228 1 35.21 13.21 9.97
229 1 10.32 17.74 32.77
230 1 38.7 24.91 37.21
231 1 2.48 33.2 37.06
232 1 37.95 5.2 20.95
233 1 1.24 16.85 11.7
234 1 25.28 32.93 39.57
235 1 36.58 36.79 16.89
236 1 13.25 24.19 4.7
237 1 18.19 4.32 0
238 1 32.82 7.33 31.72
239 1 5.03 32.22 15.52
240 1 6.64 34.35 15.38
241 1 7.25 8.86 31.37
242 1 25.14 5.19 5.74
243 1 19.75 29.49 20.54
244 1 27.37 25.37 9.95
245 1 15.86 19.74 9.55
246 1 35.06 28.75 31.41
247 1 28.02 21.29 19
248 1 30.22 21.4 33.7
249 1 7.53 11.48 16.61
250 1 21.37 24.05 13.41
251 1 8.94 19.07 23.63
252 1 28.14 35.4 17.04
253 1 22.01 13.23 5.79
254 1 32.82 11.23 27.98
255 1 30.07 30.75 35.64
256 1 21.44 24.51 35.77
257 1 22.38 22.54 6.56
258 1 29.65 34.16 25.82
259 1 38.39 35.04 36.85
260 1 34.15 11.19 39.36
261 1 33.1 14.22 26.46
262 1 13.7 39.52 15.85
263 1 12.79 23.95 27.46
264 1 1.76 34.03 10.54
265 1 10.49 7.18 29.63
266 1 18.86 4.2 17.64
267 1 7.57 10.01 8.85
268 1 21.8 27.46 31.28
269 1 33.08 29.05 15.39
270 1 31.86 24.45 6.8
271 1 30.47 22.04 6.05
272 1 17.34 23.66 34.21
273 1 12.77 28.62 21.38
274 1 9.83 26.02 15.16
275 1 36.61 14.11 23.75
276 1 13.43 14.14 27.35
277 1 16.53 21.72 2.87
278 1 21.07 21.85 36.9
279 1 36.64 34.1 28.09
280 1 30.16 25.72 20.45
281 1 1.8 18.59 6.69
282 1 0.93 2.92 32.91
283 1 12.15 28.64 5.55
284 1 16.97 34.19 10.06
285 1 1.21 4.93 4.83
286 1 11.77 4.94 18.29
287 1 26.25 7.38 27.98
288 1 0.9 9.53 22.72
289 1 15.92 15.3 16.92
290 1 2.39 16.13 6.94
291 1 38.98 7.71 8.02
292 1 36.44 24.75 33.85
293 1 28.02 3.48 40.28
294 1 32.79 24.58 27.84
295 1 19.13 38.37 23.31
296 1 26.13 30.81 26.74
297 1 25.32 37.71 10.13
298 1 17.11 22.62 13
299 1 28.71 12.46 18.32
300 1 12.72 4.62 15.7
301 1 21.97 24.25 21.39
302 1 8.5 39.99 25.46
303 1 4.07 32.46 4.27
304 1 40.13 29.52 14.6
305 1 5.93 33.46 23.26
306 1 14.39 9.14 24.84
307 1 9.33 6.64 21.31
308 1 1.42 36.16 13.03
309 1 23.05 27.13 13.59
310 1 19.25 29.65 39.61
311 1 24.97 6.66 14.85
312 1 25.56 28.65 28.8
313 1 7.55 20.85 30.45
314 1 18.02 29.25 37.21
315 1 12.46 30.98 25.56
316 1 22.76 12.51 28.68
317 1 34.86 23.44 38.55
318 1 6.28 31.51 39.06
319 1 37.35 22.64 38.12
320 1 13.32 8.98 7.77
321 1 7.6 31.36 7.92
322 1 3.2 2.92 5.28
323 1 8.17 32.54 20.26
324 1 33.33 1.17 16.36
325 1 6.7 22.34 26.69
326 1 6.9 10.25 1.16
327 1 23.58 5.69 21.7
328 1 6.43 25.17 19.05
329 1 23.26 8.26 22.95
330 1 24.6 5.41 0.47
331 1 10.27 37.68 9.57
332 1 9.45 18.71 30.17
333 1 23.88 32.4 3.14
334 1 18.89 25.67 14.66
335 1 21.08 34.27 35.88
336 1 34.88 38.03 22.42
337 1 33.65 19.29 12.9
338 1 18.1 33.44 13.03
339 1 27.58 18.85 34.07
340 1 38.29 27.58 7.12
341 1 21.68 36.19 20.75
342 1 5.04 25.73 5.05
343 1 1.41 34.45 27.88
344 1 27.73 11.25 33.33
345 1 27.71 24.76 35.14
346 1 24.28 10.29 27.74
347 1 3.09 28.26 26.6
348 1 33.62 12.46 15.82
349 1 34.86 7.96 21.33
350 1 0.82 32.03 23.5
351 1 35.45 35.97 29.43
352 1 0.86 16.21 14.22
353 1 37.39 36.66 19.62
354 1 22.28 29.54 3.15
355 1 28.35 5.82 7.67
356 1 0.92 2.79 39.12
357 1 30.29 13.68 13.18
358 1 9.33 29.45 36.19
359 1 28.42 4.11 24.77
360 1 32.26 36.13 38.14
361 1 11 12.78 1.77
362 1 4.63 27.91 17.84
363 1 17.07 6.75 22.89
364 1 14.61 25.72 29.45
365 1 31.59 24.4 35.11
366 1 30.2 1.31 14.46
367 1 37.59 2.4 6.6
368 1 21.29 30.53 37.11
369 1 39.27 36.98 38.86
370 1 26.8 19.16 21.4
371 1 16.41 39.31 25.95
372 1 9.69 29.2 13.5
373 1 27.53 37.31 14.96
374 1 39.19 34.81 26.86
375 1 4.58 34.95 35.75
376 1 16.69 38.78 17.74
377 1 35.77 25.42 0.83
378 1 2.12 7.53 15.05
379 1 26.96 16.39 21.85
380 1 18.69 25.78 34.81
381 1 31.08 2.05 11.3
382 1 25.38 25.67 14.72
383 1 15.38 36.08 4.1
384 1 17.99 15.64 7.6
385 1 13.48 26.71 33.84
386 1 26.8 11.5 27.32
387 1 1.54 10.68 6
388 1 40.23 14.74 5.4
389 1 36.03 10.44 1.04
390 1 40.27 20.82 19.68
391 1 8.14 7.47 10.17
392 1 23.01 23.29 25.13
393 1 24.45 35.58 39.13
394 1 16.12 7.37 31.42
395 1 5.76 33.91 1.46
396 1 31.29 8.29 21.14
397 1 26.31 3.05 2.12
398 1 9.91 11.48 4.27
399 1 31.46 10.48 0.09
400 1 30.29 25.82 36.96
401 1 0.97 0.36 6.09
402 1 35.65 10.51 32.33
403 1 19.31 37.69 14.38
404 1 33.55 36.27 18.98
405 1 18.22 30.92 1.96
406 1 26.19 23.4 4.47
407 1 34.52 18.94 18.73
408 1 18 17.34 22.55
409 1 29.46 38.88 36.64
410 1 29.69 32.51 29.16
411 1 30.49 31.54 18.94
412 1 9.58 20.81 17.84
413 1 6.71 31.64 10.56
414 1 22.41 25.98 25.2
415 1 0.94 37.14 7.12
416 1 10.92 35.65 18.07
417 1 32.21 32.86 28.58
418 1 10.93 26.81 27.06
419 1 3.19 32.47 33.07
420 1 36.76 31.71 19.52
421 1 20.35 18.11 24.46
422 1 20.91 6.64 25.09
423 1 10.1 10.37 16.06
424 1 28.02 5.65 35.63
425 1 35.14 37.59 34.6
426 1 13.31 6.79 20.66
427 1 36.7 3.28 10.23
428 1 25.02 16.31 40.16
429 1 36.8 38.83 36.93
430 1 21.02 26.52 22.84
431 1 31.28 14.47 37.3
432 1 37.94 23.1 8.37
433 1 5.03 30.22 27.41
434 1 29.62 1.39 2.63
435 1 7.47 0.13 8.06
436 1 38.23 5.11 4.54
437 1 39.93 24.87 25.55
438 1 34.19 29.51 24.42
439 1 20.47 2.12 13.72
440 1 35.23 22.56 8.27
441 1 25.51 30.81 9.11
442 1 14.65 2.8 23.47
443 1 29.03 11.44 12.04
444 1 25.34 9.61 6.21
445 1 30.62 7.07 29.67
446 1 20.14 26.59 19.31
447 1 23.99 18.8 34.8
448 1 5.95 40.15 26.19
449 1 14.04 38.54 3.78
450 1 24.56 30.41 13.32
451 1 21.96 15.4 37.47
452 1 17.75 29.95 13.91
453 1 30 24.23 10.01
454 1 20.89 16.81 12.16
455 1 17.88 25.56 7.57
456 1 4.27 34.88 28.94
457 1 27.54 31.01 22.64
458 1 37.45 12.66 14.46
459 1 19.48 0.08 35.41
460 1 27.37 13.05 7.53
461 1 33.02 25.4 20.41
462 1 1.48 18.62 31.88
463 1 7.9 13.95 14.08
464 1 2.88 22.28 25.79
465 1 38.48 31.61 29.94
466 1 22.09 5.99 35.48
467 1 28.63 36.32 36.24
468 1 38.86 6.3 0.55
469 1 33.31 10.47 4.38
470 1 19.15 32.04 15.81
471 1 8.85 25 29.63
472 1 8.9 27.61 20.23
473 1 12.18 15 2.97
474 1 35.38 25.14 27.35
475 1 34.98 3.62 16.95
476 1 2.18 26.72 30.22
477 1 23.49 39.83 14.17
478 1 29.61 23.62 16.24
479 1 17.77 4.92 31.95
480 1 23.44 32.31 22.07
481 1 39.98 9.4 34.94
482 1 23.16 20.77 20.94
483 1 30.72 39.47 1.32
484 1 38.21 33.83 6.13
485 1 25.03 20.28 5.03
486 1 8.13 2.06 0.28
487 1 24.3 29.11 4.99
488 1 26.13 2.77 20.49
489 1 38.85 23.15 19.7
490 1 33.72 28.97 39.22
491 1 15.4 30.12 23.14
492 1 26.95 23.89 12.19
493 1 33.79 39.24 2.48
494 1 3.96 24.16 35.45
495 1 16.18 23.5 30.71
496 1 2.07 14.74 38.68
497 1 30.18 22.68 12.3
498 1 23.2 29.18 27.74
499 1 10.01 37.53 28.46
500 1 21.32 26.45 15.65
501 1 21.24 0.4 15.62
502 1 20.89 3.84 3.39
503 1 9.17 23.48 16.82
504 1 35.98 11.63 19.01
505 1 6.18 22.94 31.5
506 1 29.43 20.3 1.53
507 1 30.94 11.06 19.18
508 1 0.78 29.06 25.3
509 1 22.25 36.73 18.09
510 1 29.05 30.9 4.89
511 1 29.36 25.55 13.42
512 1 35.32 3.46 33.39
513 1 1.16 10.28 37.51
514 1 20.57 38.65 26.44
515 1 36.07 27.24 25.21
516 1 2.07 24.38 13.3
517 1 34.26 12.88 3.51
518 1 10.31 14.41 12.37
519 1 9.38 38.84 19.09
520 1 14.07 8.44 4.29
521 1 15.41 20.54 16.4
522 1 27.58 16.26 10.16
523 1 25.93 13.52 35
524 1 12.01 2.84 22.28
525 1 22.95 1.03 28.91
526 1 13.43 35.35 1.22
527 1 1.51 10.7 30.78
528 1 1.51 33.34 13.52
529 1 15.23 24.34 16.79
530 1 7.27 13.14 34.73
531 1 7.97 3.66 27.39
532 1 17.14 37.9 33.72
533 1 15.06 39.11 28.45
534 1 18.87 10.3 19.6
535 1 14.38 27.01 13.12
536 1 8.39 3.57 24.81
537 1 38.39 22.38 25.79
538 1 15.75 1.47 2.34
539 1 35.19 0.55 25.41
540 1 28.42 27.41 38.19
541 1 5.46 12.97 6.28
542 1 8.89 2.46 8.16
543 1 25.94 34.98 22.31
544 1 14.79 28.08 5.58
545 1 6.03 12.35 29.13
546 1 38.69 37.18 13
547 1 1.38 31.64 3.51
548 1 35.47 24.38 6.34
549 1 32.59 0.5 22.95
550 1 15.18 0.66 10.28
551 1 39.41 9.71 6.37
552 1 24.49 24.11 22.16
553 1 23.58 35.12 23.49
554 1 28.68 25.97 29.06
555 1 19.77 36.06 31.34
556 1 17.23 27.73 19.03
557 1 9.9 7.22 0.49
558 1 31.67 37.29 12.12
559 1 13.27 18.7 39.87
560 1 7.72 22.1 14.57
561 1 32.01 33.6 4.22
562 1 29.24 1.31 27.47
563 1 35.74 31.01 15.48
564 1 29.24 30.47 38.31
565 1 1.85 8.13 39.32
566 1 11.61 21.85 8.21
567 1 34.42 6.84 2.27
568 1 33.89 15.24 36.43
569 1 17.74 14.01 12.8
570 1 19.43 28.05 8.92
571 1 37.91 34.82 31.56
572 1 9.81 6.76 12.59
573 1 11.01 18.49 27.77
574 1 38.54 24.72 22.08
575 1 5.05 18.27 18.47
576 1 37.09 34.37 2.31
577 1 17.35 33.08 0.96
578 1 20.36 16.72 8.72
579 1 20.25 1.72 30.6
580 1 23.3 32.87 18.2
581 1 20.37 16.2 26.36
582 1 23.66 38.54 32.95
583 1 17.95 37.77 2.29
584 1 38.94 18.93 36.8
585 1 17.33 1.95 19.34
586 1 20.97 28.76 12.99
587 1 10.85 12.02 21.93
588 1 14.2 12.97 7.24
589 1 35.95 37.2 24.76
590 1 26.13 3.84 33.38
591 1 26.38 17.3 13.15
592 1 39.91 38.99 32.56
593 1 36.95 35.79 40.2
594 1 12.89 34.23 29.26
595 1 22.69 21.6 39.27
596 1 9.35 13.44 38.33
597 1 15.4 5.17 24.54
598 1 20.38 20.65 22.32
599 1 15.78 39.91 23.35
600 1 5.79 1.38 3.84
601 1 3.08 8.56 31.32
602 1 11.49 33.51 3.04
603 1 2.71 0.65 23.71
604 1 1.38 1.24 26.04
605 1 24.61 14.63 22.16
606 1 34.89 35.6 12.14
607 1 21.1 11.3 32.03
608 1 2.71 21.71 19.21
609 1 23.71 20.64 17.11
610 1 26.08 37.7 29.26
611 1 0.91 3.79 24.55
612 1 12.32 39.46 28.22
613 1 7.92 31.55 34.94
614 1 8.64 12.28 0.36
615 1 12.09 17.65 14.49
616 1 9.43 36.82 21.33
617 1 36.55 32.11 12.96
618 1 8.4 32.99 2.64
619 1 31.5 1.27 28.72
620 1 24.34 22.94 9.93
621 1 7.01 36.45 22.06
622 1 24.11 7.5 7.34
623 1 37.69 25.12 10.61
624 1 26.42 28.27 13.92
625 1 15.34 2.49 36.76
626 1 38.48 1.35 9
627 1 21.7 35 9.42
628 1 3.72 31.77 23.06
629 1 15.84 9.15 20.81
630 1 36.19 25.71 36.44
631 1 5.29 40.17 38.18
632 1 20.45 3.98 39.03
633 1 29.76 17.56 6.56
634 1 27.71 25.28 17.58
635 1 22.85 2.42 36.32
636 1 37.97 11.28 8.22
637 1 16.19 31.79 21.09
638 1 12.48 29.94 16.43
639 1 33.04 15.18 4.69
640 1 16.78 28.3 16.21
641 1 12.3 32.06 13.6
642 1 37.49 19.3 8.98
643 1 33.85 26.38 14.06
644 1 13.65 3.49 30.58
645 1 6.73 20.1 12.55
646 1 35.5 39.28 17
647 1 35.94 6.49 40.05
648 1 38.77 30.43 18.77
649 1 9.34 23.14 34.99
650 1 30.07 29.3 10.71
651 1 34.2 12.43 34.17
652 1 6.27 35.67 39.41
653 1 36.47 25.36 29.9
654 1 34.68 0.88 35.09
655 1 32.8 21.84 12.27
656 1 16.15 12.91 15.84
657 1 39.9 31.77 16.26
658 1 5.2 20.9 32.93
659 1 36.09 7.97 33.55
660 1 21.26 1.56 10.93
661 1 38.62 18.42 19.82
662 1 18.61 11.23 26.74
663 1 23.91 17.32 30.61
664 1 6.35 18.59 27.96
665 1 36.44 6.38 11.09
666 1 1.52 22.03 16.82
667 1 32.13 18.63 5.57
668 1 32.12 28 8.05
669 1 33.44 10.76 13.39
670 1 17.97 3.84 36.63
671 1 7.73 5.79 30.15
672 1 28.91 26.16 26.3
673 1 17.81 17.85 4.28
674 1 23.27 26.43 35.53
675 1 8.19 39.84 35.49
676 1 34.72 28.74 21.62
677 1 26.85 27.69 8.01
678 1 15.93 18.86 31.64
679 1 14.52 6.93 15.27
680 1 17.04 26.65 24.24
681 1 30.51 0.26 21.26
682 1 3.61 16.66 4.26
683 1 1.56 20.23 27.85
684 1 7.96 6.27 18.79
685 1 14.94 22.69 23.95
686 1 32.39 37.89 16.15
687 1 29.33 34.3 12.19
688 1 30.53 30.6 15.96
689 1 39.24 4.96 13.73
690 1 3.64 7.12 3.33
691 1 15.67 36.12 40.3
692 1 15.89 16.75 12.75
693 1 21.39 23.11 16.18
694 1 24.88 21.83 14.98
695 1 32.15 34.92 25.42
696 1 28.19 13.78 32.37
697 1 38.15 13.73 36.33
698 1 4.34 38.11 5.78
699 1 4.39 32.76 30.68
700 1 29.3 40.08 18.94
701 1 13.13 19.99 9.97
702 1 31.42 37.74 27.25
703 1 27.79 31.69 8.13
704 1 5.34 33.98 9.79
705 1 26.02 6.27 9.09
706 1 22.47 28.86 19.5
707 1 4.65 3.26 8.18
708 1 30.39 35.15 29.66
709 1 24.34 7.21 31.55
710 1 1.25 5.23 35.44
711 1 13.9 24.91 25.17
712 1 35.81 11.45 28.67
713 1 0.58 16.96 37.03
714 1 23.03 31.98 14.86
715 1 21.35 11.15 16.87
716 1 38.06 39.95 16.78
717 1 4.14 33.13 17.9
718 1 34.8 37.62 0.62
719 1 31.88 17.92 20.97
720 1 2.35 12.73 23.18
721 1 27.28 18.89 9.16
722 1 34.08 30.84 32.94
723 1 3.24 12.44 29.43
724 1 20.51 13.24 10.61
725 1 31.79 20.32 37.77
726 1 1.3 30.36 32.6
727 1 5.81 35.39 25.29
728 1 13.56 4.05 7.98
729 1 1.28 14.06 30.84
730 1 37.51 9.91 14.19
731 1 3.56 20.43 35.72
732 1 28.07 12.72 29.57
733 1 10.3 37.71 3.32
734 1 25.19 31.08 34.85
735 1 4.21 10.15 14.81
736 1 32.97 35.53 0.38
737 1 13.91 4.25 27.98
738 1 31.63 31.47 25.22
739 1 0.68 9 9.58
740 1 36.93 12.69 21.38
741 1 37.79 16.76 2.9
742 1 34.09 31.93 3.23
743 1 21.04 1.53 38.02
744 1 36.98 8.31 23.17
745 1 16.36 39.68 20.39
746 1 17.18 22.8 15.67
747 1 28.72 35.45 23.63
748 1 14.78 27.06 19.92
749 1 2.92 27.23 4.32
750 1 9.98 34.24 21.43
751 1 39.57 30.17 37.09
752 1 4 36.55 7.97
753 1 35.51 40.02 20.2
754 1 3.83 30.87 6.52
755 1 23.54 22.38 4.14
756 1 10.44 35.41 5.16
757 1 21.94 36.13 37.8
758 1 20.92 22.45 11.15
759 1 34.96 1.04 12.5
760 1 31.12 23.56 22.65
761 1 40.18 26.31 14.22
762 1 37.25 22.57 4.99
763 1 4.26 7.25 0.58
764 1 15.35 25.68 4.5
765 1 2.28 7.2 25.48
766 1 18.92 27.67 30.48
767 1 39.65 25.69 8.82
768 1 39.97 27.95 19.22
769 1 39.16 22.4 16.47
770 1 0.02 10.28 27.66
771 1 8.01 6.31 2.72
772 1 19.06 31.98 21.44
773 1 20.95 27.15 33.92
774 1 34.62 26.42 32.63
775 1 13.01 27.14 10.69
776 1 15.23 2.32 6.84
777 1 5.62 0.1 20.02
778 1 5.43 8.1 8.94
779 1 19.61 23.85 40.08
780 1 16.42 17.74 36.17
781 1 1.14 24.59 39.76
782 1 6.36 7.02 34.85
783 1 3.05 36.8 31.14
784 1 38.19 39.3 19.71
785 1 34.49 5.31 7.49
786 1 24.47 29.77 21.04
787 1 12.16 20.83 19.64
788 1 0.03 17.4 34.06
789 1 10.61 0.66 13.21
790 1 6.15 18.53 34.26
791 1 33.16 18.56 32.08
792 1 9.17 11.65 13.75
793 1 7.1 2.26 37.53
794 1 32.03 8.54 27.72
795 1 35.7 16.62 1.27
796 1 12.94 10.35 29.84
797 1 2.19 39.8 0.71
798 1 37 15.81 37.98
799 1 7.49 16.11 26.99
800 1 17.7 35.11 2.85
801 1 31.15 21.88 19.33
802 1 17.25 7.21 25.89
803 1 20.56 20.99 4.24
804 1 9.8 8.47 4.96
805 1 39.26 1.31 36.3
806 1 14.38 16.03 36.82
807 1 36.47 20.67 36.31
808 1 6.61 29.71 32.95
809 1 21.04 7.71 37.31
810 1 15.82 32.12 14.47
811 1 1.03 14.49 2.94
812 1 0.93 0.5 34.22
813 1 27.33 35.44 20.21
814 1 19.97 8.78 33.61
815 1 18.31 16.83 11.28
816 1 4.9 9.75 26.88
817 1 20.96 9.67 6.39
818 1 8.24 24.98 32.39
819 1 27.63 11.16 9.47
820 1 38.52 30.52 11.93
821 1 32.37 22.09 16.08
822 1 30 29.32 25.11
823 1 33.54 38.45 13.56
824 1 11.86 2.16 35.27
825 1 33.36 20.13 21.36
826 1 34.7 17.19 3.89
827 1 3.46 32.57 0.97
828 1 15.12 30.43 16.35
829 1 15.64 14.36 3.11
830 1 1.96 3.51 28.54
831 1 39.33 17.27 22.33
832 1 6.77 20.61 18.88
833 1 16.9 3.1 8.99
834 1 7.92 12.09 21.19
835 1 8.14 16.69 16.54
836 1 13.56 32.61 17.77
837 1 19.16 22.54 2.24
838 1 0.82 1.63 9.6
839 1 4.23 0.78 15.95
840 1 32.56 31.1 13.34
841 1 2.62 39.21 14.43
842 1 29.16 28.98 2.53
843 1 40.06 29.17 39.66
844 1 9.6 32.87 14.25
845 1 7.7 40.3 2.27
846 1 22.84 13.28 32.9
847 1 18.66 0.29 26.68
848 1 5.62 15.63 23.83
849 1 25.84 10.75 14.14
850 1 31.47 3.05 5.58
851 1 25.2 30.4 0.19
852 1 26.17 21.38 28.98
853 1 37.71 17.8 40.1
854 1 12.03 38.7 13.46
855 1 6.58 22.61 0.49
856 1 27.27 3.26 13.14
857 1 3.43 10.18 22.42
858 1 11.62 21.83 2.59
859 1 28.4 25.84 4.91
860 1 2.73 18.96 19.88
861 1 22.09 35.77 12.9
862 1 20.57 6.12 15.87
863 1 25.96 9.01 9.88
864 1 18.52 16.98 15
865 1 7.58 9.28 28.79
866 1 25.92 10.74 0.19
867 1 12.95 5.2 40.22
868 1 22.74 17.8 27.31
869 1 34.34 4.24 26.6
870 1 13.78 35.3 20.66
871 1 37.65 9.92 27.05
872 1 37.54 28.37 36.05
873 1 5.76 3.36 34.54
874 1 30.29 22.26 28.98
875 1 33.27 17.32 7.84
876 1 36.32 13.1 6.25
877 1 31.94 25.9 25.24
878 1 10.28 1.96 4.49
879 1 35.79 2.29 29.66
880 1 39.42 31.96 0.66
881 1 36.78 38.58 5.24
882 1 11.44 31.68 36.34
883 1 14.5 28.14 38.68
884 1 34.02 10.46 20.6
885 1 17.43 38.1 39.98
886 1 38.09 35.29 24.41
887 1 36.48 22.44 18.56
888 1 33.63 11.48 23.01
889 1 1.7 21.29 9.05
890 1 7.44 29.06 27.45
891 1 25.16 14.13 32.09
892 1 1.77 1.71 21.15
893 1 34.75 40.18 39.87
894 1 32.82 38.88 38.45
895 1 27.71 22.33 21.52
896 1 0.15 32.64 6.43
897 1 37.24 11.84 37.94
898 1 18.17 31.43 29.34
899 1 39.97 7 22.59
900 1 18.54 15.41 18.12
901 1 1.82 25.83 35.19
902 1 32.99 21.58 28.52
903 1 32.54 28.4 26.5
904 1 29.85 19 19.33
905 1 3.17 13.46 8.6
906 1 19.97 37.86 8.92
907 1 34.31 10.89 7.99
908 1 20.38 7.98 39.79
909 1 4.08 23.95 30.35
910 1 34.44 9.67 30.08
911 1 15.83 14.67 22.27
912 1 14.31 15 39.47
913 1 4.67 20.58 0.3
914 1 9.3 23.44 5.29
915 1 23.99 29.5 25.21
916 1 22.65 5.58 38.51
917 1 25.74 26.62 34.47
918 1 29.33 20.29 22.88
919 1 25.41 9.85 23.58
920 1 5.91 3.3 5.75
921 1 13.26 0.07 24.3
922 1 3.95 21.94 21.71
923 1 33.33 33.33 31.66
924 1 1.75 13.49 11.46
925 1 31.12 25.39 17.87
926 1 18.68 1.02 10.11
927 1 12.86 29.67 11.9
928 1 7.9 33.19 5.76
929 1 31.52 13.95 10.66
930 1 15.09 30.71 10.65
931 1 21.09 11.3 8.65
932 1 39.99 29.53 22.7
933 1 10.99 39.69 23.21
934 1 11.17 30.25 32.83
935 1 35.73 21.44 33.77
936 1 39.68 20.56 38.83
937 1 38.83 27.33 25.22
938 1 30.58 30.23 31.97
939 1 16.82 31.12 31.95
940 1 5.21 15.11 2.27
941 1 24.84 38.55 19
942 1 12.51 0.82 6.01
943 1 19.45 22.46 27.16
944 1 32.36 24.77 4.09
945 1 35.75 26.25 20.92
946 1 32.12 31.82 8.55
947 1 8.7 35.27 29.76
948 1 35.05 10.31 35.73
949 1 1.26 18.47 3.27
950 1 26.92 31.79 30.59
951 1 19.83 31.55 12.47
952 1 22.51 24.47 32.82
953 1 30.23 19.24 31.72
954 1 14.74 36.18 29.4
955 1 5.11 5.14 14.15
956 1 17.3 21.16 0.18
957 1 18.17 3.47 29.67
958 1 11.96 31.08 29.41
959 1 37.82 23.64 1.93
960 1 17.75 13.63 29.43
961 1 11.26 4.53 13.15
962 1 18.27 32.55 23.95
963 1 12.2 0.99 2.41
964 1 26.14 39.74 14.83
965 1 19.64 34.25 25.86
966 1 23.16 5.03 26.02
967 1 24.78 34.61 26.17
968 1 31.13 18.17 2.24
969 1 8.71 36.14 14.18
970 1 0.19 36.77 30.71
971 1 35.38 5.14 23.18
972 1 9.79 21.35 25.44
973 1 12.34 35.92 10.06
974 1 28.08 23.46 6.35
975 1 10.86 32.76 23.68
976 1 30.1 12.23 26.99
977 1 17.98 3.06 4.02
978 1 9.39 13.77 5.8
979 1 9.45 9.49 25.09
980 1 16.34 21.81 21.77
981 1 24.99 26.74 0.49
982 1 7.58 15.2 37.01
983 1 31.93 17.52 14.11
984 1 39.35 5.86 11.26
985 1 4.69 28.04 12.05
986 1 16.66 4.48 5.88
987 1 15.74 12.77 24.25
988 1 3.41 5.51 9.08
989 1 31.54 1.89 18.38
990 1 0.92 19.46 11.11
991 1 0.13 36.81 15.47
992 1 28.51 39.12 22.77
993 1 13.02 38.93 39.16
994 1 25.23 25.5 2.88
995 1 14.03 22.77 10.31
996 1 9.25 38.92 11.71
997 1 2.11 4.72 19.58
998 1 31.44 35.05 35.86
999 1 8.95 37.43 34.77
1000 1 33.36 28.64 36.08
1001 1 8.38 6.15 33.05
1002 1 40.15 37.7 4.67
1003 1 21.69 8 8.71
1004 1 32.18 8.59 34.14
1005 1 14.51 19.21 26.55
1006 1 30.7 5.38 14.11
1007 1 12.31 15.84 19.88
1008 1 13.39 1.66 26.7
1009 1 16.76 30.86 5.21
1010 1 18.86 4.2 14.43
1011 1 4.39 20.58 7.71
1012 1 1.98 18.48 15.24
1013 1 8.27 4.71 16.14
1014 1 31.72 12.39 24.88
1015 1 5.75 14.11 12.42
1016 1 35.44 32 0.93
1017 1 34.44 26.16 38.38
1018 1 22.59 31.58 7.33
1019 1 14 30.55 34.91
1020 1 28.52 20.02 29.53
1021 1 30.6 16.24 9.08
1022 1 15.61 10.68 10.44
1023 1 21.38 25.43 28.83
1024 1 1.76 24.14 4.11
1025 1 10.33 23.56 38.15
1026 1 16.98 11.5 21.82
1027 1 19.22 12.62 38.96
1028 1 39.53 1.91 23.34
1029 1 9.94 27.93 32.56
1030 1 0.46 12.83 36.71
1031 1 1.19 7.66 11.86
1032 1 19.31 13.12 4.8
1033 1 33.52 22.55 36.26
1034 1 16.31 7.1 8.83
1035 1 19.34 7.42 27.88
1036 1 20.25 20.75 40.15
1037 1 28.24 9.52 16.3
1038 1 39.89 33.9 29.86
1039 1 22.94 4.79 14.48
1040 1 40.19 23.27 34.11
1041 1 3.94 26.97 20.54
1042 1 17.89 9.49 6.52
1043 1 27.19 33.89 32.5
1044 1 26.49 27.43 4.23
1045 1 1.33 29.4 30.13
1046 1 35.35 7.11 29.89
1047 1 27.87 28.02 11.62
1048 1 13.47 1.45 20.5
1049 1 34.66 4.15 20.72
1050 1 27.59 38.05 18.63
1051 1 20.95 6.79 30.55
1052 1 23.06 4.64 28.81
1053 1 10.07 4.48 9.39
1054 1 10.15 10.46 35.02
1055 1 30.88 33.07 38.56
1056 1 22.31 10.4 11.46
1057 1 29.29 38.53 39.49
1058 1 18.54 19.47 6.52
1059 1 24.03 26.53 11.21
1060 1 38 2.4 34.21
1061 1 6.58 28.57 9.53
1062 1 4.49 30.65 34.51
1063 1 36.53 33.94 15.67
1064 1 2.44 9.34 34.83
1065 1 3.46 11.5 38.06
1066 1 25.49 22.64 24.15
1067 1 13.79 17.52 9.02
1068 1 25.49 5.93 3.17
1069 1 22.17 22.6 1.85
1070 1 6.09 2.44 10.47
1071 1 13.02 5.27 4.54
1072 1 5.73 39.67 30.79
1073 1 31.65 35.79 7.39
1074 1 16.33 33.26 26.29
1075 1 29.8 10.57 29.04
1076 1 35.49 3.29 14.11
1077 1 8.45 17.79 19.43
1078 1 13.37 33.61 39.31
1079 1 21.4 16.51 31.71
1080 1 15.46 14.32 19.42
1081 1 24.76 6.3 17.85
1082 1 4.2 18 21.92
1083 1 19.34 33.68 9.13
1084 1 3.58 12.81 13.77
1085 1 35.95 1.28 37.66
1086 1 25.02 34.06 34.11
1087 1 36.42 27.52 10.59
1088 1 22.28 32.48 11.65
1089 1 13.61 10.65 21.54
1090 1 4.05 20.82 2.82
1091 1 32.83 7.5 39.04
1092 1 33.32 38.96 29
1093 1 19.87 1.39 19.83
1094 1 20.39 31.8 33.45
1095 1 17.46 6.92 20.17
1096 1 10.84 25.73 22.56
1097 1 27.1 23.4 14.89
1098 1 0.1 4.29 26.96
1099 1 6.4 18.5 40.14
1100 1 23.34 25.21 16.82
1101 1 20.29 13.31 26.54
1102 1 34.14 13.91 18.41
1103 1 29.84 38.39 4.6
1104 1 25.7 18.98 2.92
1105 1 38.12 36.9 2.99
1106 1 34.77 12.78 37.41
1107 1 26.19 8.99 38.11
1108 1 22.88 37.53 15.54
1109 1 9.58 11.19 28.83
1110 1 28.85 35.01 38.64
1111 1 38.04 23.27 13.92
1112 1 32.21 14.75 40.19
1113 1 22.98 3.75 23.36
1114 1 30.79 29.18 28.43
1115 1 21.92 33.33 24.66
1116 1 31.05 14.91 23.02
1117 1 14.63 17.4 19.02
1118 1 5.16 14.31 18.33
1119 1 37.48 34.74 12.28
1120 1 19.28 27.61 17.11
1121 1 34.56 21.11 14.8
1122 1 39.47 12.84 27.74
1123 1 31.09 18.64 16.92
1124 1 11.01 35.02 26.37
1125 1 6.45 8.3 39.35
1126 1 11.02 39.65 37.41
1127 1 30.34 29.46 0.16
1128 1 5.82 22.65 3.62
1129 1 16.68 30.81 27.21
1130 1 33.37 33.33 37.04
1131 1 8.67 18.93 34.62
1132 1 5.25 28.61 36.55
1133 1 34.01 20.99 31.05
1134 1 18.78 6.93 3.43
1135 1 18.2 20.42 19.7
1136 1 36.04 18.69 26.86
1137 1 0.79 23.44 7.79
1138 1 14.29 29.65 28.51
1139 1 22.85 28.52 0.68
1140 1 11.17 36.82 23.53
1141 1 28.82 37.99 9.16
1142 1 40.28 9.43 13.87
1143 1 5.2 23.58 38.07
1144 1 17.87 1.77 38.66
1145 1 5.65 37.37 29.22
1146 1 2.56 35.44 19.94
1147 1 36.77 20.09 23.16
1148 1 13.55 19.68 5.33
1149 1 16.37 23.84 9.27
1150 1 31.93 40.1 36.06
1151 1 31.7 31.2 5.86
1152 1 27.79 19.44 6.28
1153 1 24.72 39.92 27.27
1154 1 20.3 29.63 25.12
1155 1 31.87 3.4 37.2
1156 1 25.17 8.65 12.47
1157 1 11.24 16.31 0.34
1158 1 16.64 12.85 27.07
1159 1 4.51 29.2 21.99
1160 1 5.08 3.39 30.6
1161 1 26.7 29.82 38.29
1162 1 27.12 22.65 9.09
1163 1 36.38 31.7 5.51
1164 1 24.96 14.38 15.84
1165 1 16.59 30.52 18.74
1166 1 10.83 29.98 23.51
1167 1 37.54 37.51 30.49
1168 1 32.29 21.87 39.82
1169 1 36.52 25.56 13.45
1170 1 35.51 40.1 10.11
1171 1 2.74 15.85 32.76
1172 1 33.76 22.91 18.52
1173 1 25.98 32.66 20.92
1174 1 38.82 1.36 14.39
1175 1 22.82 16.6 20.88
1176 1 19.38 7.99 22.75
1177 1 10.95 16.66 4.8
1178 1 34.68 11.84 26.23
1179 1 31.08 28.38 18.91
1180 1 34.15 7.75 16.79
1181 1 37.13 19.88 5.11
1182 1 2.11 39.13 3.36
1183 1 23.11 35.6 6.7
1184 1 25.52 33.64 7.38
1185 1 15.35 13.44 10.84
1186 1 6.34 11.87 10.55
1187 1 17.25 19.5 14.71
1188 1 40.15 13.17 19.57
1189 1 35.13 3.98 39.89
1190 1 24.88 27.47 31.22
1191 1 9.15 22.14 32.58
1192 1 24.24 12 6.93
1193 1 39.65 14.13 13.42
1194 1 39.27 0.16 4.27
1195 1 22.71 3.68 11.78
1196 1 22.94 7.56 1.36
1197 1 19.07 12.35 14.66
1198 1 15.44 5.11 19.66
1199 1 25.8 26.01 28.41
1200 1 4.28 37.7 26.4
1201 1 27.65 27.61 0.5
1202 1 31 23.92 32.57
1203 1 39.31 20.2 26.97
1204 1 24.28 24.82 30.84
1205 1 14.08 16.66 1.35
1206 1 15.47 35.4 36.76
1207 1 35.07 23.95 10.57
1208 1 36.48 8.43 9.01
1209 1 29.23 16.04 12.53
1210 1 13.65 0.95 17.87
1211 1 12.72 29.81 7.75
1212 1 1.84 27.28 39.07
1213 1 1.12 15.18 16.94
1214 1 35.63 9.24 3.37
1215 1 14.24 27.57 24.28
1216 1 5.89 10.33 5.66
1217 1 9.57 33.71 32.66
1218 1 27.73 10.12 25.09
1219 1 37.92 39.45 28.44
1220 1 5.15 14.63 26.36
1221 1 33.28 33.81 21.08
1222 1 8.14 28.31 22.95
1223 1 13.08 31.89 31.79
1224 1 4.87 36.25 19.28
1225 1 15.35 35.19 18.42
1226 1 15.29 16.35 26.62
1227 1 11.12 28.49 19.17
1228 1 16.93 8.82 36.93
1229 1 3.55 0.08 4.94
1230 1 12.06 34.31 35.7
1231 1 5.87 5.96 4.43
1232 1 32.94 1.18 3.71
1233 1 22.56 7.94 12.46
1234 1 15.47 29.03 32.9
1235 1 7.72 1.02 23.22
1236 1 29.02 29.14 8.3
1237 1 14.36 34.53 32.56
1238 1 27.81 39.72 3
1239 1 28.58 21.93 35.91
1240 1 23.91 22.7 19.22
1241 1 0.16 2.37 30.34
1242 1 21.27 35.86 33.48
1243 1 22.98 18.63 24.66
1244 1 2.38 10.22 25.73
1245 1 22.51 15.43 10.45
1246 1 19.38 3.69 7.76
1247 1 19.76 6.12 33.36
1248 1 23.34 39.26 21.33
1249 1 30.26 27.79 5.85
1250 1 23.47 0.83 34.32
1251 1 37.07 4.44 26.97
1252 1 18.4 2.95 23.7
1253 1 27.58 30.78 15
1254 1 32.11 17.28 23.56
1255 1 13.14 11.52 24.12
1256 1 5.89 26.65 33.27
1257 1 15.01 22.82 28.25
1258 1 12.49 36.31 7.18
1259 1 5.5 24.06 9.12
1260 1 10.59 0.43 31.99
1261 1 31.32 36.83 2.74
1262 1 11.65 24.39 1.65
1263 1 14.34 6.55 6.85
1264 1 7.48 23.03 7.16
1265 1 30.02 24.88 2.78
1266 1 40.1 28.02 34.85
1267 1 1.4 26.84 10.46
1268 1 25.9 29.91 32.37
1269 1 21.7 37.97 23.19
1270 1 39.04 19.49 2.99
1271 1 25.55 4.36 11.11
1272 1 29.77 27.02 15.84
1273 1 15.01 32.99 23.69
1274 1 12.19 29.16 39.26
1275 1 28.2 38.47 27.68
1276 1 21.01 14.5 20
1277 1 5.33 16.46 29.2
1278 1 33.12 35.43 27.9
1279 1 18 10.98 17
1280 1 7.03 38.31 17.19
1281 1 13.19 9.24 10.75
1282 1 3.92 7.2 11.15
1283 1 3.65 29.79 15.46
1284 1 3.5 30.72 39.12
1285 1 3.43 1 28.04
1286 1 36.79 8.93 16.75
1287 1 34.14 7.19 24.56
1288 1 6.71 17.3 11.22
1289 1 17.09 27.7 12.62
1290 1 36.94 15.46 13.31