 Coarse-grained water

        3 atoms

           1 atom types

  0.0000000E+00   40.310000000000      xlo xhi
  0.0000000E+00   40.310000000000      ylo yhi
  0.0000000E+00   40.310000000000      zlo zhi

 Masses

1 18.01540

 Atoms

1 1 28.15 5.43 2.37
2 1 1.89 29.57 17.61
3 1 8.92 35.56 8.24
