methane, fchk created by VOTCA-XTP
SP    RHF    def2-tzvp
Number of atoms                            I               5
Charge                                     I               0
Multiplicity                               I               1
Number of electrons                        I              10
Number of alpha electrons                  I               5
Number of beta electrons                   I               5
Number of basis functions                  I              55
Number of independent functions            I              55
Atomic numbers                             I  N=           5
           6           1           1           1           1
Nuclear charges                            R  N=           5
  6.00000000e+00  1.00000000e+00  1.00000000e+00  1.00000000e+00  1.00000000e+00
Current cartesian coordinates              R  N=          15
  0.00000000e+00  0.00000000e+00  0.00000000e+00  1.18886063e+00  1.18886063e+00
  1.18886063e+00 -1.18886063e+00 -1.18886063e+00  1.18886063e+00  1.18886063e+00
 -1.18886063e+00 -1.18886063e+00 -1.18886063e+00  1.18886063e+00 -1.18886063e+00
Number of primitive shells                 I              44
Number of contracted shells                I              27
Pure/Cartesian d shells                    I               0
Pure/Cartesian f shells                    I               0
Highest angular momentum                   I               3
Largest degree of contraction              I               6
Shell types                                I  N=          27
           0           0           0           0           0           1
           1           1          -2          -2          -3           0
           0           0           1           0           0           0
           1           0           0           0           1           0
           0           0           1
Number of primitives per shell             I  N=          27
           6           2           1           1           1           4
           1           1           1           1           1           3
           1           1           1           3           1           1
           1           3           1           1           1           3
           1           1           1
Shell to atom map                          I  N=          27
           1           1           1           1           1           1
           1           1           1           1           1           2
           2           2           2           3           3           3
           3           4           4           4           4           5
           5           5           5
Primitive exponents                        R  N=          44
  1.35753500e+04  2.03523300e+03  4.63225600e+02  1.31200200e+02  4.28530200e+01
  1.55841900e+01  6.20671400e+00  2.57649000e+00  5.76963400e-01  2.29728300e-01
  9.51644400e-02  3.46972300e+01  7.95826200e+00  2.37808300e+00  8.14332100e-01
  2.88875500e-01  1.00568200e-01  1.09700000e+00  3.18000000e-01  7.61000000e-01
  3.40613400e+01  5.12357500e+00  1.16466300e+00  3.27230400e-01  1.03072400e-01
  8.00000000e-01  3.40613400e+01  5.12357500e+00  1.16466300e+00  3.27230400e-01
  1.03072400e-01  8.00000000e-01  3.40613400e+01  5.12357500e+00  1.16466300e+00
  3.27230400e-01  1.03072400e-01  8.00000000e-01  3.40613400e+01  5.12357500e+00
  1.16466300e+00  3.27230400e-01  1.03072400e-01  8.00000000e-01
Contraction coefficients                   R  N=          44
  6.06454873e-04  4.69790902e-03  2.43324771e-02  9.73999489e-02  3.01955822e-01
  6.62336108e-01  6.55953048e-01  3.75856364e-01  1.00000000e+00  1.00000000e+00
  1.00000000e+00  1.13272217e-02  7.61696692e-02  3.01922483e-01  7.27850311e-01
  1.00000000e+00  1.00000000e+00  1.00000000e+00  1.00000000e+00  1.00000000e+00
  2.54393038e-02  1.90085900e-01  8.52441155e-01  1.00000000e+00  1.00000000e+00
  1.00000000e+00  2.54393038e-02  1.90085900e-01  8.52441155e-01  1.00000000e+00
  1.00000000e+00  1.00000000e+00  2.54393038e-02  1.90085900e-01  8.52441155e-01
  1.00000000e+00  1.00000000e+00  1.00000000e+00  2.54393038e-02  1.90085900e-01
  8.52441155e-01  1.00000000e+00  1.00000000e+00  1.00000000e+00
Coordinates of each shell                  R  N=          81
  0.00000000e+00  0.00000000e+00  0.00000000e+00  0.00000000e+00  0.00000000e+00
  0.00000000e+00  0.00000000e+00  0.00000000e+00  0.00000000e+00  0.00000000e+00
  0.00000000e+00  0.00000000e+00  0.00000000e+00  0.00000000e+00  0.00000000e+00
  0.00000000e+00  0.00000000e+00  0.00000000e+00  0.00000000e+00  0.00000000e+00
  0.00000000e+00  0.00000000e+00  0.00000000e+00  0.00000000e+00  0.00000000e+00
  0.00000000e+00  0.00000000e+00  0.00000000e+00  0.00000000e+00  0.00000000e+00
  0.00000000e+00  0.00000000e+00  0.00000000e+00  1.18886063e+00  1.18886063e+00
  1.18886063e+00  1.18886063e+00  1.18886063e+00  1.18886063e+00  1.18886063e+00
  1.18886063e+00  1.18886063e+00  1.18886063e+00  1.18886063e+00  1.18886063e+00
 -1.18886063e+00 -1.18886063e+00  1.18886063e+00 -1.18886063e+00 -1.18886063e+00
  1.18886063e+00 -1.18886063e+00 -1.18886063e+00  1.18886063e+00 -1.18886063e+00
 -1.18886063e+00  1.18886063e+00  1.18886063e+00 -1.18886063e+00 -1.18886063e+00
  1.18886063e+00 -1.18886063e+00 -1.18886063e+00  1.18886063e+00 -1.18886063e+00
 -1.18886063e+00  1.18886063e+00 -1.18886063e+00 -1.18886063e+00 -1.18886063e+00
  1.18886063e+00 -1.18886063e+00 -1.18886063e+00  1.18886063e+00 -1.18886063e+00
 -1.18886063e+00  1.18886063e+00 -1.18886063e+00 -1.18886063e+00  1.18886063e+00
 -1.18886063e+00
Total Energy                               R -4.053758914883583e+01
Alpha Orbital Energies                     R  N=          55
 -1.01540729e+01 -6.96631528e-01 -3.95538630e-01 -3.95538630e-01 -3.95538630e-01
  4.76295309e-02  1.22861725e-01  1.22861725e-01  1.22861725e-01  1.96033766e-01
  1.96033766e-01  1.96033766e-01  3.90175722e-01  4.70142853e-01  4.70142853e-01
  4.70142853e-01  5.24852890e-01  5.94383505e-01  5.94383505e-01  9.28204442e-01
  9.28204442e-01  9.28204442e-01  1.47691039e+00  1.47691039e+00  1.47691039e+00
  1.48098841e+00  1.53074184e+00  1.53074184e+00  1.53074184e+00  1.95057062e+00
  1.98743439e+00  1.98743439e+00  1.98743439e+00  2.23554430e+00  2.23554430e+00
  2.23554430e+00  2.40503048e+00  2.40503048e+00  2.57241096e+00  2.57241096e+00
  2.57241096e+00  2.97146371e+00  2.97146371e+00  2.99789957e+00  3.36012842e+00
  3.36012842e+00  3.36012842e+00  3.49513701e+00  3.49513701e+00  3.49513701e+00
  4.19458011e+00  4.19458011e+00  4.19458011e+00  4.46598151e+00  2.21698388e+01
Alpha MO coefficients                      R  N=        3025
 -4.66772518e-01 -6.08580394e-01 -3.49950524e-02  1.43412551e-02 -2.26134794e-02
 -2.48230039e-13  7.06778386e-14 -3.29129736e-13  3.20218244e-13  1.96558915e-13
  3.41445622e-13 -3.15784725e-15  9.55717710e-14  2.04247426e-15  4.74555291e-16
  2.77291428e-13  2.44826728e-13  8.26731262e-16  2.31184212e-13 -4.43005008e-16
  1.19912977e-13  9.60507715e-14  4.51028104e-17  9.47904949e-14 -5.63353753e-14
  3.74719786e-14  4.42642884e-14 -5.05238212e-17 -2.18960006e-03 -4.72217751e-14
  5.68804986e-14  6.35986469e-04  2.19441498e-03  4.35228636e-03 -1.30255577e-03
 -1.30255577e-03 -1.30255577e-03  6.35986469e-04  2.19441498e-03  4.35228636e-03
  1.30255577e-03  1.30255577e-03 -1.30255577e-03  6.35986469e-04  2.19441498e-03
  4.35228636e-03 -1.30255577e-03  1.30255577e-03  1.30255577e-03  6.35986469e-04
  2.19441498e-03  4.35228636e-03  1.30255577e-03 -1.30255577e-03  1.30255577e-03
  9.56901510e-02  2.02492199e-01 -3.21119273e-01 -3.29547216e-01 -9.16588805e-02
 -2.82065560e-11 -1.92854309e-11 -3.04589114e-11 -2.51012006e-11 -1.84446104e-11
 -2.79159508e-11  4.89384791e-12  7.99591751e-12  5.22741312e-12 -4.93377041e-15
 -2.32838922e-13 -6.17915441e-13  7.42678488e-16 -7.92948172e-13 -3.31557698e-14
  6.41137924e-12  6.94828223e-12 -4.18276525e-14  6.59683159e-12 -4.30176077e-13
  3.08368782e-13  2.30345257e-13 -1.26287869e-15 -7.38126042e-03 -3.82039886e-13
  2.84178930e-13 -8.48054550e-02 -9.11777052e-02 -1.25329366e-02  7.33970733e-03
  7.33970733e-03  7.33970733e-03 -8.48054550e-02 -9.11777052e-02 -1.25329365e-02
 -7.33970733e-03 -7.33970733e-03  7.33970733e-03 -8.48054550e-02 -9.11777052e-02
 -1.25329365e-02  7.33970733e-03 -7.33970733e-03 -7.33970733e-03 -8.48054550e-02
 -9.11777052e-02 -1.25329365e-02 -7.33970733e-03  7.33970732e-03 -7.33970733e-03
 -4.41110516e-12 -8.92698502e-12  2.12572139e-11 -1.61947261e-11  6.12040713e-11
 -2.53297387e-01 -1.34206846e-01  1.61629570e-01 -1.78860348e-01 -9.47671964e-02
  1.14131146e-01 -9.28465188e-02 -4.91937110e-02  5.92455496e-02  2.69222871e-12
 -6.59123912e-03 -1.24400781e-02 -1.09821462e-12  7.93803873e-03  1.30400985e-11
 -1.11566401e-03 -2.10566588e-03 -5.14959950e-12  1.34362958e-03  1.77149713e-04
  1.70006675e-04  9.00761766e-05 -1.82209976e-12 -1.04559243e-12 -2.19477666e-04
  1.16287834e-04 -7.30693006e-02 -1.04328597e-01 -4.61366922e-02 -2.07074518e-03
  2.19187044e-03  1.27807629e-02  1.77641982e-01  2.53637830e-01  1.12164936e-01
  7.94088614e-03  1.22035018e-02 -1.12219584e-02 -9.08115229e-02 -1.29661003e-01
 -5.73393098e-02 -3.72131493e-04 -1.34978332e-02 -2.90894077e-03 -1.37611587e-02
 -1.96482295e-02 -8.68893413e-03 -1.03837628e-02 -3.48620189e-03  4.46774525e-03
  1.07147140e-11  2.18186608e-11 -4.97941913e-11  2.89244167e-11 -1.24907667e-10
  1.17063593e-02  2.43770979e-01  2.20757406e-01  8.26618678e-03  1.72133486e-01
  1.55882960e-01  4.29098266e-03  8.93546005e-02  8.09189423e-02  1.18061060e-12
  1.19722120e-02  5.74929047e-04 -1.00150739e-12  1.08419570e-02  5.41892052e-12
  2.02647270e-03  9.73152221e-05 -5.23924133e-12  1.83516044e-03  2.41955164e-04
 -7.85700187e-06 -1.63612787e-04 -3.45241327e-12  2.30399825e-12  1.01433453e-05
 -2.11223205e-04  1.54059509e-01  2.19966694e-01  9.72747252e-02 -1.43304192e-02
 -6.02411492e-03 -6.84784128e-03 -1.12317210e-02 -1.60366897e-02 -7.09182176e-03
 -6.56301587e-04  7.65000274e-03  8.97689254e-03 -1.46485614e-01 -2.09152661e-01
 -9.24924915e-02  1.44433189e-02 -5.29900163e-03 -6.12272799e-03  3.65782606e-03
  5.22265659e-03  2.30958818e-03  7.69201266e-04  8.37511605e-03  8.25177923e-03
  7.27649039e-12  1.50503035e-11 -3.17656010e-11  7.62358232e-12 -6.80152983e-11
  2.09758329e-01 -1.75668420e-01  1.82858447e-01  1.48116205e-01 -1.24044370e-01
  1.29121448e-01  7.68872149e-02 -6.43915100e-02  6.70270246e-02  1.17297074e-12
 -8.62752230e-03  1.03017643e-02  2.18079352e-12  8.98064280e-03  5.74889528e-12
 -1.46033480e-03  1.74372488e-03  1.08774361e-11  1.52010567e-03  2.00417041e-04
 -1.40784374e-04  1.17904115e-04  5.78953465e-12  1.14998722e-12  1.81751855e-04
  1.52213558e-04  7.01816857e-02  1.00205651e-01  4.43134230e-02  7.88804698e-04
 -1.30068004e-02 -1.74024569e-04  4.81258624e-02  6.87142711e-02  3.03871540e-02
  1.21153915e-02 -1.68021366e-03  1.93756678e-03  6.55298116e-02  9.35636893e-02
  4.13761828e-02  1.23416812e-03 -1.39857335e-05  1.28187901e-02 -1.83837360e-01
 -2.62483611e-01 -1.16076760e-01 -1.00924187e-02  1.13126010e-02 -1.10552479e-02
  5.16287475e-02  1.13396226e-01 -2.99930296e-01  2.11611281e-01 -4.78705515e+00
 -9.14384983e-11 -7.75818706e-11 -8.83215090e-11  2.45814723e-11  3.14787432e-11
  1.09743464e-12 -2.18369559e-10 -1.82381117e-10 -1.56008342e-10 -3.49004679e-15
  1.76889354e-11  1.83510065e-11 -3.05506488e-15  1.71623393e-11  1.91339999e-15
  7.82448368e-11  8.53459386e-11  4.35519676e-14  7.56783820e-11 -2.90486793e-11
  1.88282081e-11  1.81860429e-11  6.27449481e-15  2.27149148e-02 -2.43008200e-11
  2.34748297e-11  1.41852480e-02 -1.30624777e-01  1.68485951e+00  2.30820769e-02
  2.30820769e-02  2.30820769e-02  1.41852480e-02 -1.30624777e-01  1.68485951e+00
 -2.30820769e-02 -2.30820769e-02  2.30820769e-02  1.41852480e-02 -1.30624777e-01
  1.68485951e+00  2.30820769e-02 -2.30820769e-02 -2.30820769e-02  1.41852480e-02
 -1.30624777e-01  1.68485951e+00 -2.30820769e-02  2.30820769e-02 -2.30820769e-02
 -2.99747740e-11 -6.97801710e-11  9.11530175e-11  5.66606159e-10  2.48680532e-10
 -1.35992145e-01 -1.38777885e-01 -1.35451068e-01 -3.93440625e-02 -4.01500085e-02
 -3.91875228e-02 -9.77951952e-01 -9.97984872e-01 -9.74060937e-01 -3.11839325e-13
  1.35593250e-02  1.32871436e-02 -3.62757538e-13  1.32342775e-02 -1.15394170e-12
  6.19784708e-02  6.07343540e-02 -1.31563689e-12  6.04927079e-02 -8.34515053e-03
  5.13075408e-03  5.23585535e-03  1.76838426e-13  5.06088662e-11 -6.62377504e-03
  6.75946019e-03  5.77713098e-02 -1.93178865e-01  2.96160132e+00  3.40530383e-02
  3.38618107e-02  3.40901807e-02 -1.96202462e-02  6.56072522e-02 -1.00581668e+00
  5.40027552e-03  5.20904791e-03 -2.40335434e-02 -1.94678467e-02  6.50976505e-02
 -9.98004039e-01 -2.39562285e-02  5.09459066e-03  5.32296061e-03 -1.86832169e-02
  6.24739626e-02 -9.57780604e-01  4.69653429e-03 -2.35581721e-02  4.73367664e-03
 -1.44195159e-12 -2.62268072e-12 -1.15012375e-11  9.83090137e-11 -2.17842322e-10
 -1.64263223e-01 -5.49630944e-03  1.70550699e-01 -4.75232048e-02 -1.59014437e-03
  4.93422425e-02 -1.18125602e+00 -3.95252721e-02  1.22647075e+00  6.29300616e-12
  5.37018167e-04  1.60493757e-02 -3.32670154e-12 -1.66636950e-02  2.24351839e-11
  2.45466237e-03  7.33602717e-02 -1.18536327e-11 -7.61682704e-02  1.05076413e-02
  6.19737408e-03  2.07366484e-04 -5.43059001e-12  2.05736470e-12 -8.00077552e-03
  2.67708960e-04 -1.11419687e-04  3.72571246e-04 -5.71184363e-03 -1.13595583e-02
 -4.60975165e-04  1.16238032e-02 -4.79257842e-02  1.60256857e-01 -2.45687810e+00
  2.47180361e-02  3.56166193e-02 -2.42864313e-02  4.63776971e-02 -1.55080279e-01
  2.37751661e+00  2.35553694e-02 -3.52085429e-02 -2.31237645e-02  1.65950679e-03
 -5.54914953e-03  8.50733263e-02 -1.25222251e-02  8.69051607e-04  1.04611364e-02
  1.26620199e-12  3.07180670e-12 -1.92181809e-11  5.94544830e-11 -2.37243912e-10
  1.03072240e-01 -1.91861007e-01  9.30893340e-02  2.98199627e-02 -5.55075552e-02
  2.69317952e-02  7.41217064e-01 -1.37971826e+00  6.69427603e-01  3.05678898e-12
  1.87458235e-02 -1.00706968e-02  5.56766612e-12 -9.09531462e-03  1.08859102e-11
  8.56854950e-02 -4.60322609e-02  1.97794281e-11 -4.15738757e-02  5.73524083e-03
 -3.88874159e-03  7.23859185e-03  1.02019469e-11  2.11714847e-12  5.02034383e-03
  9.34498190e-03 -6.05647563e-04  2.02519742e-03 -3.10480517e-02  6.62055017e-03
 -1.36251953e-02  5.93527178e-03 -2.56138364e-02  8.56489465e-02 -1.31307343e+00
  2.63122856e-02  6.06654016e-03 -1.28467393e-02 -2.84256156e-02  9.50511276e-02
 -1.45721710e+00 -1.42732039e-02  8.17828318e-03  2.77387502e-02  5.46450996e-02
 -1.82725272e-01  2.80133858e+00 -3.39649394e-02  2.78700186e-02 -3.46502178e-02
 -7.80174916e-13 -1.92474042e-12  1.05463236e-11 -4.54638861e-11  2.75972858e-10
 -5.23809542e-02  1.06392955e-01 -5.59954582e-02 -7.78474867e-02  1.58119001e-01
 -8.32192875e-02  7.21762452e-01 -1.46599926e+00  7.71567067e-01  3.62050103e-12
  2.15298505e-02 -1.05998946e-02  6.25553233e-12 -1.13313315e-02 -6.70270848e-12
 -1.14012544e-01  5.61323430e-02 -1.22849777e-11  6.00057085e-02 -8.75164569e-03
  5.01332626e-03 -1.01827582e-02  7.57820148e-11 -1.21102781e-12 -6.47217625e-03
 -1.31458843e-02 -6.22792798e-04 -6.88752095e-03 -4.67186144e-03  8.34994833e-03
 -1.65686751e-02  8.91722329e-03 -3.45416347e-02 -3.81999011e-01 -2.59113031e-01
  1.06243586e-03 -2.38561876e-02  1.59465993e-02 -3.22717727e-02 -3.56896405e-01
 -2.42085729e-01  1.49089158e-02 -2.33857790e-02  2.10011939e-03  6.74362002e-02
  7.45782936e-01  5.05870621e-01  2.21964283e-02 -3.06732915e-02  2.27637032e-02
 -1.33135690e-13 -3.35537154e-13  2.40452450e-12 -8.47274334e-12  3.11597692e-11
  9.40412145e-02 -1.79837043e-03 -9.13878136e-02  1.39762101e-01 -2.67270080e-03
 -1.35818671e-01 -1.29580338e+00  2.47799275e-02  1.25924190e+00  5.18711116e-12
 -3.63921149e-04  1.90303323e-02 -3.28456966e-12 -1.84933858e-02 -7.47655583e-12
  1.92716508e-03 -1.00776204e-01  5.18667748e-12  9.79327730e-02 -1.42831899e-02
 -9.00058599e-03  1.72120218e-04 -4.56923284e-11 -4.32305233e-13  1.16197066e-02
  2.22206101e-04  2.68474083e-04  2.96907877e-03  2.01395022e-03 -1.48148497e-02
  2.26604724e-04  1.42871365e-02 -5.76588455e-02 -6.37654301e-01 -4.32526090e-01
 -2.67084899e-02 -1.16670354e-02  2.62920544e-02  5.87881990e-02  6.50143922e-01
  4.40997901e-01 -2.69425383e-02  1.24655710e-02  2.65261027e-02 -1.39782758e-03
 -1.54586995e-02 -1.04857614e-02 -1.50488981e-02  5.71930813e-04  1.40530881e-02
  9.73462153e-12  2.74787476e-11 -1.01860408e-10  2.81143716e-10 -2.76488475e-09
  7.49079584e-02  7.66552122e-02  7.55744190e-02  1.11326653e-01  1.13923385e-01
  1.12317133e-01 -1.03216432e+00 -1.05623990e+00 -1.04134754e+00  5.22730622e-13
  1.55120728e-02  1.51584957e-02  6.63271955e-13  1.52933617e-02 -2.34055310e-12
 -8.21450608e-02 -8.02726732e-02 -2.80831955e-12 -8.09868641e-02  1.18116819e-02
 -7.16936216e-03 -7.33658999e-03  9.00510569e-13 -2.42334017e-12  9.25560675e-03
 -9.47149695e-03  7.13197425e-02  7.88731375e-01  5.35002897e-01 -2.65367373e-02
 -2.68109585e-02 -2.66413344e-02 -2.38599793e-02 -2.63869633e-01 -1.78984914e-01
 -1.67011267e-02 -1.69753478e-02 -6.91619000e-03 -2.42785080e-02 -2.68498180e-01
 -1.82124495e-01 -6.72485663e-03 -1.70620842e-02 -1.68924601e-02 -2.31812551e-02
 -2.56363562e-01 -1.73893485e-01 -1.65604672e-02 -7.22647359e-03 -1.66650643e-02
 -5.25660915e-02 -9.96104869e-02 -3.83703536e-01  4.34614203e+00 -1.51800228e+01
  1.22489895e-10  1.07733763e-10  9.06303929e-11  6.97382884e-10  6.23607291e-10
  5.13330066e-10 -4.51218789e-10 -3.86568102e-10 -2.79257793e-10  4.40489659e-15
 -1.87126226e-11 -1.89705604e-11 -1.45283091e-15 -1.98381893e-11 -3.19059015e-14
  2.05897012e-10  2.21783604e-10  3.84553500e-14  1.88521284e-10 -4.91542415e-11
  3.45580743e-11  3.28364454e-11  3.52027435e-14  6.96283196e-02 -4.46689500e-11
  4.23958386e-11 -1.33512560e-02 -1.61598006e-01  3.64862084e+00  3.58436728e-02
  3.58436728e-02  3.58436728e-02 -1.33512559e-02 -1.61598004e-01  3.64862084e+00
 -3.58436727e-02 -3.58436727e-02  3.58436727e-02 -1.33512559e-02 -1.61598004e-01
  3.64862084e+00  3.58436727e-02 -3.58436727e-02 -3.58436727e-02 -1.33512559e-02
 -1.61598004e-01  3.64862084e+00 -3.58436727e-02  3.58436727e-02 -3.58436727e-02
  3.97991555e-12  2.53835995e-11 -1.11417575e-10  7.52094277e-10 -7.56461369e-09
 -1.85185280e-01 -1.95064173e-01 -1.89487498e-01 -7.66364215e-01 -8.07246675e-01
 -7.84168362e-01  1.19195184e+00  1.25553769e+00  1.21964322e+00 -5.15585052e-13
  3.96361020e-03  3.76287585e-03 -5.46333676e-13  3.85029486e-03 -6.14938027e-12
 -3.80455486e-02 -3.61187576e-02 -8.25653435e-12 -3.69578673e-02  1.97977408e-02
 -1.18483307e-02 -1.24803917e-02 -5.04191740e-13 -6.69146472e-11  1.52961292e-02
 -1.61121164e-02  1.22419793e-01  1.66459866e+00 -3.20073546e+00 -4.43891357e-02
 -4.51645262e-02 -4.47268152e-02 -4.09891597e-02 -5.57348604e-01  1.07168502e+00
 -2.45309798e-02 -2.53063703e-02 -4.87694121e-03 -4.28380012e-02 -5.82488158e-01
  1.12002403e+00 -4.08839236e-03 -2.57572397e-02 -2.53195286e-02 -3.85926314e-02
 -5.24761898e-01  1.00902642e+00 -2.39465482e-02 -5.89908381e-03 -2.42842277e-02
 -3.76452374e-12 -7.53656599e-12 -1.23993888e-11  2.61680351e-10 -1.08338500e-09
 -2.49705557e-01  3.11635486e-02  2.11955417e-01 -1.03337265e+00  1.28966128e-01
  8.77148805e-01  1.60723897e+00 -2.00585322e-01 -1.36425881e+00  2.56866891e-12
 -6.33228333e-04  5.07389693e-03 -1.65014801e-12 -4.30683222e-03 -3.79368819e-11
  6.07817561e-03 -4.87028691e-02  3.19820039e-11  4.13400368e-02 -2.21451993e-02
 -1.59763996e-02  1.99387351e-03  2.33412439e-11  2.13933298e-12  2.06254431e-02
  2.57407970e-03  1.41526570e-03  1.92440238e-02 -3.70029306e-02 -1.99444274e-02
  2.10087978e-03  1.62911634e-02 -9.25012948e-02 -1.25778298e+00  2.41849924e+00
 -4.21572053e-02 -2.01118981e-02  3.91942115e-02  1.05893563e-01  1.43988387e+00
 -2.76864776e+00 -4.54231232e-02  2.82698457e-02  4.24601293e-02 -1.48075344e-02
 -2.01344909e-01  3.87151452e-01 -2.32103453e-02  6.05706778e-03  1.30252455e-02
 -5.59442987e-12 -1.34604983e-11  1.54945674e-11  1.34468839e-10  7.69730807e-12
  1.07715727e-01 -2.63112016e-01  1.65585387e-01  4.45766956e-01 -1.08885346e+00
  6.85252710e-01 -6.93316223e-01  1.69353013e+00 -1.06579641e+00  1.42587634e-12
  5.34630973e-03 -2.18873181e-03  1.48812299e-12 -3.36461549e-03 -3.47315857e-11
 -5.13176807e-02  2.10090036e-02 -5.04135414e-11  3.22959709e-02 -1.73004372e-02
  6.89175485e-03 -1.68341576e-02 -3.04364624e-11  4.43485526e-12 -8.89721731e-03
 -2.17328039e-02 -2.18933888e-03 -2.97694556e-02  5.72415166e-02  8.98847077e-03
 -2.01176550e-02  1.35306379e-02 -6.89695659e-02 -9.37811156e-01  1.80324873e+00
 -8.36476074e-03 -3.74708864e-02  2.98160591e-02 -4.41005742e-02 -5.99655949e-01
  1.15303472e+00  1.92091925e-02 -3.14061870e-02  2.24210585e-03  1.15259479e-01
  1.56723656e+00 -3.01352497e+00  3.65624241e-02 -4.87594185e-02  4.11045912e-02
 -6.29325845e-02 -1.45666898e-01  4.21527315e-02  1.91189714e+00  1.27297241e-01
 -1.18072019e-10 -9.01817562e-11 -1.23294399e-10 -3.94304409e-10 -2.86163974e-10
 -4.23255521e-10  6.45303717e-10  4.80979753e-10  6.78589903e-10 -2.34100933e-15
  1.74555405e-11  1.85300768e-11 -2.67841305e-15  1.86696058e-11  1.55167545e-13
 -9.48827648e-12 -6.18172180e-12  1.79627146e-13 -9.94536051e-12  6.36284016e-12
 -3.24496333e-12 -1.69570955e-12  2.43555176e-15  6.77786546e-02  4.17167342e-12
 -2.20059908e-12 -8.33771988e-02 -1.24459260e+00  3.70320860e-01  2.09061750e-02
  2.09061750e-02  2.09061750e-02 -8.33771989e-02 -1.24459260e+00  3.70320862e-01
 -2.09061750e-02 -2.09061750e-02  2.09061750e-02 -8.33771989e-02 -1.24459260e+00
  3.70320862e-01  2.09061750e-02 -2.09061750e-02 -2.09061750e-02 -8.33771989e-02
 -1.24459260e+00  3.70320862e-01 -2.09061750e-02  2.09061750e-02 -2.09061750e-02
 -8.09031661e-15 -1.55821536e-14  3.57543856e-14 -5.26662047e-14  8.06521516e-13
 -1.45993981e-11 -2.97217806e-12  2.42103473e-11  1.29587140e-10  5.96673405e-11
 -1.88633331e-10 -9.77324940e-11 -4.84880825e-11  1.39758964e-10  2.30169197e-02
 -4.56643404e-13 -9.84719251e-13 -4.93129308e-03  1.43035757e-12 -9.48234133e-01
  2.58615178e-11  6.38945077e-11  2.03155786e-01 -9.56439069e-11 -2.99633105e-12
 -5.95242258e-12 -5.45537227e-12  1.80401527e-12 -1.02140518e-14 -2.39112202e-12
  3.89602586e-12 -7.21644966e-15 -2.95478225e-12  8.80664812e-12  1.43687231e-02
  6.59090463e-03 -2.09596278e-02  2.26004961e-11  2.38059859e-10 -2.46610533e-10
 -1.43687231e-02 -6.59090461e-03 -2.09596278e-02 -1.55192695e-11 -1.60470802e-10
  1.59127561e-10  1.43687232e-02 -6.59090464e-03  2.09596278e-02 -7.11521814e-12
 -7.50641216e-11  7.80681405e-11 -1.43687231e-02  6.59090463e-03  2.09596278e-02
  2.03873377e-14  4.75921386e-14 -2.13969467e-13  3.55687702e-13 -1.66651068e-12
 -1.62058752e-11  9.21543918e-12 -5.18197117e-12  1.43257413e-10 -1.84734818e-10
  4.05621231e-11 -1.08156826e-10  1.50070054e-10 -2.99422648e-11 -4.93129308e-03
  1.43002277e-12 -1.10189635e-12 -2.30169197e-02 -3.00898195e-13  2.03155786e-01
 -7.99934546e-11  7.05226363e-11  9.48234133e-01  2.05866851e-11  6.30255180e-13
  3.20033583e-12 -1.21134006e-12  8.40340991e-12  2.36581588e-14  4.96230487e-12
  1.99215471e-12  2.17794532e-15  5.15460504e-12 -1.61265029e-11  1.59063073e-02
 -2.03968329e-02  4.49052561e-03 -4.82728441e-12 -5.53835185e-11  6.76471223e-11
 -1.59063073e-02  2.03968329e-02  4.49052561e-03 -1.71453069e-11 -1.85034323e-10
  2.02815013e-10  1.59063073e-02  2.03968329e-02 -4.49052562e-03  2.20168259e-11
  2.36069220e-10 -2.53150285e-10 -1.59063073e-02 -2.03968329e-02 -4.49052559e-03
 -7.85991064e-13 -2.28644621e-12  1.90025027e-11 -3.54656166e-11 -1.63358736e-11
 -1.63886103e-01  5.46816449e-02  1.10930817e-01 -1.33611446e+00  4.45803125e-01
  9.04385832e-01 -7.14190151e-01  2.38294106e-01  4.83419252e-01  1.37262025e-11
  1.63588423e-03 -4.90290098e-03 -1.54566277e-11  3.31866341e-03 -4.01278594e-11
  5.80834457e-01 -1.74081624e+00  4.57153586e-11  1.17831936e+00 -6.63358437e-02
 -6.00141703e-02  2.00241113e-02 -3.99553064e-11 -2.35551682e-12  7.74779608e-02
  2.58510164e-02  3.07320153e-04 -1.57624417e-02  1.04698542e-03 -1.70173991e-02
  6.65011499e-03  1.27410323e-02  3.91876718e-02 -2.00993455e+00  1.33505468e-01
 -1.10696089e-01 -8.70285744e-02  1.04961848e-01 -5.86561224e-02  3.00847081e+00
 -1.99831037e-01 -1.56873562e-01  1.45048404e-01  1.51139322e-01  1.91611304e-02
 -9.82773821e-01  6.52785830e-02 -6.31948723e-02  5.13697148e-02 -3.34364409e-02
 -4.30237877e-13 -1.73566543e-12  2.42820538e-11 -6.58991889e-11  4.89121972e-11
  3.11986689e-02 -1.59922426e-01  1.24923352e-01  2.54353433e-01 -1.30379979e+00
  1.01846279e+00  1.35958948e-01 -6.96917063e-01  5.44396544e-01  1.54409148e-11
 -4.78432158e-03  9.33355431e-04  1.33151589e-11  3.73727129e-03 -4.56166979e-11
 -1.69871363e+00  3.31395698e-01 -3.98928460e-11  1.32694961e+00 -7.47032808e-02
  1.14247774e-02 -5.85626941e-02  3.38734284e-11 -8.10514850e-13 -1.47493241e-02
 -7.56041130e-02 -6.76534020e-04  3.46994102e-02 -2.30483178e-03  1.77365446e-03
 -1.89218107e-02  1.19225913e-02  4.51533253e-02 -2.31591274e+00  1.53829395e-01
 -1.03721430e-01 -1.24416895e-01  1.20627036e-01  1.17842786e-02 -6.04415304e-01
  4.01469532e-02  3.13296192e-02 -4.52684156e-02 -1.44240136e-02 -5.62610698e-02
  2.88562863e+00 -1.91671516e-01  1.36824704e-01 -1.50763500e-01  1.46973641e-01
  1.25588385e-12 -5.47465805e-12  1.18781615e-10 -4.29029492e-10  1.31271620e-09
  1.19676111e-01  1.16572375e-01  1.19343592e-01  9.75683602e-01  9.50379769e-01
  9.72972675e-01  5.21529882e-01  5.08004283e-01  5.20080817e-01  2.71746167e-13
  3.48743917e-03  3.58029214e-03  4.33883398e-13  3.57034433e-03 -3.77291948e-13
  1.23824461e+00  1.27121284e+00 -8.54566418e-13  1.26768078e+00 -7.13666237e-02
  4.38247197e-02  4.26881490e-02  1.66586536e-12  1.82986872e-11 -5.65774699e-02
  5.51101634e-02  6.33011937e-02 -3.24671638e+00  2.15655972e-01  1.63104007e-01
  1.62767921e-01  1.63068001e-01 -2.08109792e-02  1.06739452e+00 -7.08993261e-02
  6.23209103e-02  6.19848236e-02 -3.64387651e-02 -2.06925916e-02  1.06132242e+00
 -7.04960006e-02 -3.61219534e-02  6.17040186e-02  6.20040986e-02 -2.17976229e-02
  1.11799945e+00 -7.42606470e-02  6.46611436e-02 -3.90790784e-02  6.46251370e-02
 -1.28619757e-09 -3.99238384e-09  4.25152010e-08 -1.05955255e-07  1.13794878e-07
  5.76105848e-01  7.08229471e-01  6.66407120e-01 -1.80295194e+00 -2.21643939e+00
 -2.08555427e+00  6.43566916e-01  7.91162002e-01  7.44442321e-01  1.17245460e-12
 -1.98881288e-02 -1.61779025e-02  6.00908646e-13 -1.87136955e-02  2.97861215e-12
 -9.19841571e-01 -7.48240691e-01  3.31477901e-13 -8.65523107e-01  6.75095632e-02
 -3.57390980e-02 -4.39354722e-02 -4.87518012e-12 -3.02215995e-09  4.61389771e-02
 -5.67204507e-02 -7.72968071e-02  3.04296332e+00 -1.60081692e+00 -3.25702219e-01
 -3.52693119e-01 -3.44149432e-01  2.44849731e-02 -9.63906236e-01  5.07083779e-01
 -1.83581051e-01 -2.10571951e-01 -7.02459511e-02  3.16412228e-02 -1.24562816e+00
  6.55289711e-01 -3.25406580e-02 -2.29830031e-01 -2.21286344e-01  2.11706102e-02
 -8.33428859e-01  4.38443323e-01 -1.74661817e-01 -8.77088722e-02 -1.93109030e-01
 -2.16228840e-10 -6.71265933e-10  7.14063889e-09 -1.77788225e-08  1.90854269e-08
  9.39097870e-01 -2.04013689e-01 -5.95028559e-01 -2.93895355e+00  6.38470997e-01
  1.86217150e+00  1.04906472e+00 -2.27903363e-01 -6.64705446e-01 -5.86118957e-12
  5.72900547e-03 -2.63712542e-02  5.08187199e-12  1.67092801e-02 -2.18346140e-11
  2.64971001e-01 -1.21969121e+00  2.06797912e-11  7.72817324e-01 -6.02786449e-02
 -5.82575423e-02  1.26561207e-02  5.00945743e-11 -5.03070231e-10  7.52101637e-02
  1.63389817e-02 -5.54960627e-03  2.18472781e-01 -1.14932351e-01 -2.06778256e-01
  2.67425102e-02  1.06621059e-01  5.27047884e-02 -2.07484298e+00  1.09151618e+00
 -3.33676886e-01 -1.00156120e-01  2.63388620e-01 -6.88725883e-02  2.71132493e+00
 -1.42635133e+00 -3.77185820e-01  2.27019005e-01  3.06897554e-01  2.17174061e-02
 -8.54954717e-01  4.49767482e-01 -2.50287188e-01  1.00120374e-01  6.31121265e-02
  1.04852699e-10  3.25302518e-10 -3.46428567e-09  8.63650307e-09 -9.32705272e-09
 -2.52552218e-01  8.56956716e-01 -6.92407355e-01  7.90374743e-01 -2.68188871e+00
  2.16692330e+00 -2.82125677e-01  9.57304968e-01 -7.73487142e-01 -5.05376253e-12
 -2.40646093e-02  7.09203902e-03 -3.79962511e-12  1.94438204e-02 -1.99735541e-11
 -1.11300708e+00  3.28012373e-01 -1.74188025e-11  8.99291961e-01 -7.01434854e-02
  1.56672398e-02 -5.31618628e-02 -4.77336885e-11  2.43442676e-10 -2.02263197e-02
 -6.86316697e-02  3.48705179e-03 -1.37275666e-01  7.22168452e-02  6.09766337e-02
 -1.65679614e-01  1.50832525e-01  5.13852640e-02 -2.02289692e+00  1.06418883e+00
 -8.66894641e-02 -3.13345712e-01  2.79730714e-01  1.65273588e-02 -6.50636791e-01
  3.42281607e-01  9.60692158e-02 -2.19540106e-01  9.69720336e-02 -7.13996745e-02
  2.81080938e+00 -1.47868728e+00  2.43735313e-01 -3.67206203e-01  3.33591205e-01
  1.20845158e-01  3.75286609e-01 -3.98980761e+00  9.92950026e+00 -1.07081675e+01
  8.02049079e-09  6.42283267e-09  6.62082239e-09 -2.50256236e-08 -2.00300719e-08
 -2.06479395e-08  8.97361591e-09  7.19374432e-09  7.40449226e-09 -1.98424176e-14
 -1.83147331e-10 -2.27048381e-10  2.05629784e-14 -1.89935906e-10  1.26189857e-13
 -8.30030098e-09 -1.03819015e-08 -1.27965347e-13 -8.55155721e-09  6.51020403e-10
 -4.82699847e-10 -3.84153047e-10 -2.28168179e-14  2.77413333e-01  6.23244219e-10
 -4.95897552e-10  2.11098803e-02 -1.48723823e+00  2.43233573e+00  1.96732678e-01
  1.96732679e-01  1.96732679e-01  2.11098814e-02 -1.48723828e+00  2.43233575e+00
 -1.96732685e-01 -1.96732684e-01  1.96732682e-01  2.11098813e-02 -1.48723828e+00
  2.43233575e+00  1.96732681e-01 -1.96732684e-01 -1.96732684e-01  2.11098814e-02
 -1.48723828e+00  2.43233575e+00 -1.96732685e-01  1.96732682e-01 -1.96732685e-01
 -3.21912635e-14 -8.73337860e-14  1.00425224e-12 -2.56875077e-12  1.90307145e-12
 -7.89203564e-11 -1.06610901e-13  1.04179075e-10  2.67843591e-10  3.29077043e-12