[Molden Format]
[Title]
Molden file created by VOTCA-XTP
 
[Atoms] AU
H        1     1    -1.012893129890e+00       4.5863649743e+00       1.8897259886e-03
C        2     6    -5.706972485572e-01       2.5794759744e+00      -3.7794519772e-03
C        3     6    -2.519004742804e+00       7.9557464120e-01      -0.0000000000e+00
H        4     1    -4.478650592982e+00       1.4154047655e+00       0.0000000000e+00
C        5     6    -1.948307494247e+00      -1.7839013332e+00       3.7794519772e-03
H        6     1    -3.465757463092e+00      -3.1709602089e+00      -1.8897259886e-03
C        7     6     5.706972485572e-01      -2.5794759744e+00       3.7794519772e-03
H        8     1     1.012893129890e+00      -4.5863649743e+00      -1.8897259886e-03
C        9     6     2.519004742804e+00      -7.9557464120e-01       0.0000000000e+00
H       10     1     4.478650592982e+00      -1.4154047655e+00      -0.0000000000e+00
C       11     6     1.948307494247e+00       1.7839013332e+00      -3.7794519772e-03
H       12     1     3.465757463092e+00       3.1709602089e+00       1.8897259886e-03
[GTO] 
   1 0 
115    3 1.0 
      3.4061340000e+01       6.0251980000e-03
      5.1235750000e+00       4.5021090000e-02
      1.1646630000e+00       2.0189730000e-01
115    1 1.0 
      3.2723040000e-01       1.0000000000e+00
115    1 1.0 
      1.0307240000e-01       1.0000000000e+00
112    1 1.0 
      8.0000000000e-01       1.0000000000e+00
 
   2 0 
115    6 1.0 
      1.3575350000e+04       2.2245810000e-04
      2.0352330000e+03       1.7232740000e-03
      4.6322560000e+02       8.9255720000e-03
      1.3120020000e+02       3.5727980000e-02
      4.2853020000e+01       1.1076260000e-01
      1.5584190000e+01       2.4295630000e-01
115    2 1.0 
      6.2067140000e+00       4.1440260000e-01
      2.5764900000e+00       2.3744970000e-01
115    1 1.0 
      5.7696340000e-01       1.0000000000e+00
115    1 1.0 
      2.2972830000e-01       1.0000000000e+00
115    1 1.0 
      9.5164440000e-02       1.0000000000e+00
112    4 1.0 
      3.4697230000e+01       5.3333660000e-03
      7.9582620000e+00       3.5864110000e-02
      2.3780830000e+00       1.4215870000e-01
      8.1433210000e-01       3.4270470000e-01
112    1 1.0 
      2.8887550000e-01       4.6445820000e-01
112    1 1.0 
      1.0056820000e-01       2.4955790000e-01
100    1 1.0 
      1.0970000000e+00       1.0000000000e+00
100    1 1.0 
      3.1800000000e-01       1.0000000000e+00
102    1 1.0 
      7.6100000000e-01       1.0000000000e+00
 
   3 0 
115    6 1.0 
      1.3575350000e+04       2.2245810000e-04
      2.0352330000e+03       1.7232740000e-03
      4.6322560000e+02       8.9255720000e-03
      1.3120020000e+02       3.5727980000e-02
      4.2853020000e+01       1.1076260000e-01
      1.5584190000e+01       2.4295630000e-01
115    2 1.0 
      6.2067140000e+00       4.1440260000e-01
      2.5764900000e+00       2.3744970000e-01
115    1 1.0 
      5.7696340000e-01       1.0000000000e+00
115    1 1.0 
      2.2972830000e-01       1.0000000000e+00
115    1 1.0 
      9.5164440000e-02       1.0000000000e+00
112    4 1.0 
      3.4697230000e+01       5.3333660000e-03
      7.9582620000e+00       3.5864110000e-02
      2.3780830000e+00       1.4215870000e-01
      8.1433210000e-01       3.4270470000e-01
112    1 1.0 
      2.8887550000e-01       4.6445820000e-01
112    1 1.0 
      1.0056820000e-01       2.4955790000e-01
100    1 1.0 
      1.0970000000e+00       1.0000000000e+00
100    1 1.0 
      3.1800000000e-01       1.0000000000e+00
102    1 1.0 
      7.6100000000e-01       1.0000000000e+00
 
   4 0 
115    3 1.0 
      3.4061340000e+01       6.0251980000e-03
      5.1235750000e+00       4.5021090000e-02
      1.1646630000e+00       2.0189730000e-01
115    1 1.0 
      3.2723040000e-01       1.0000000000e+00
115    1 1.0 
      1.0307240000e-01       1.0000000000e+00
112    1 1.0 
      8.0000000000e-01       1.0000000000e+00
 
   5 0 
115    6 1.0 
      1.3575350000e+04       2.2245810000e-04
      2.0352330000e+03       1.7232740000e-03
      4.6322560000e+02       8.9255720000e-03
      1.3120020000e+02       3.5727980000e-02
      4.2853020000e+01       1.1076260000e-01
      1.5584190000e+01       2.4295630000e-01
115    2 1.0 
      6.2067140000e+00       4.1440260000e-01
      2.5764900000e+00       2.3744970000e-01
115    1 1.0 
      5.7696340000e-01       1.0000000000e+00
115    1 1.0 
      2.2972830000e-01       1.0000000000e+00
115    1 1.0 
      9.5164440000e-02       1.0000000000e+00
112    4 1.0 
      3.4697230000e+01       5.3333660000e-03
      7.9582620000e+00       3.5864110000e-02
      2.3780830000e+00       1.4215870000e-01
      8.1433210000e-01       3.4270470000e-01
112    1 1.0 
      2.8887550000e-01       4.6445820000e-01
112    1 1.0 
      1.0056820000e-01       2.4955790000e-01
100    1 1.0 
      1.0970000000e+00       1.0000000000e+00
100    1 1.0 
      3.1800000000e-01       1.0000000000e+00
102    1 1.0 
      7.6100000000e-01       1.0000000000e+00
 
   6 0 
115    3 1.0 
      3.4061340000e+01       6.0251980000e-03
      5.1235750000e+00       4.5021090000e-02
      1.1646630000e+00       2.0189730000e-01
115    1 1.0 
      3.2723040000e-01       1.0000000000e+00
115    1 1.0 
      1.0307240000e-01       1.0000000000e+00
112    1 1.0 
      8.0000000000e-01       1.0000000000e+00
 
   7 0 
115    6 1.0 
      1.3575350000e+04       2.2245810000e-04
      2.0352330000e+03       1.7232740000e-03
      4.6322560000e+02       8.9255720000e-03
      1.3120020000e+02       3.5727980000e-02
      4.2853020000e+01       1.1076260000e-01
      1.5584190000e+01       2.4295630000e-01
115    2 1.0 
      6.2067140000e+00       4.1440260000e-01
      2.5764900000e+00       2.3744970000e-01
115    1 1.0 
      5.7696340000e-01       1.0000000000e+00
115    1 1.0 
      2.2972830000e-01       1.0000000000e+00
115    1 1.0 
      9.5164440000e-02       1.0000000000e+00
112    4 1.0 
      3.4697230000e+01       5.3333660000e-03
      7.9582620000e+00       3.5864110000e-02
      2.3780830000e+00       1.4215870000e-01
      8.1433210000e-01       3.4270470000e-01
112    1 1.0 
      2.8887550000e-01       4.6445820000e-01
112    1 1.0 
      1.0056820000e-01       2.4955790000e-01
100    1 1.0 
      1.0970000000e+00       1.0000000000e+00
100    1 1.0 
      3.1800000000e-01       1.0000000000e+00
102    1 1.0 
      7.6100000000e-01       1.0000000000e+00
 
   8 0 
115    3 1.0 
      3.4061340000e+01       6.0251980000e-03
      5.1235750000e+00       4.5021090000e-02
      1.1646630000e+00       2.0189730000e-01
115    1 1.0 
      3.2723040000e-01       1.0000000000e+00
115    1 1.0 
      1.0307240000e-01       1.0000000000e+00
112    1 1.0 
      8.0000000000e-01       1.0000000000e+00
 
   9 0 
115    6 1.0 
      1.3575350000e+04       2.2245810000e-04
      2.0352330000e+03       1.7232740000e-03
      4.6322560000e+02       8.9255720000e-03
      1.3120020000e+02       3.5727980000e-02
      4.2853020000e+01       1.1076260000e-01
      1.5584190000e+01       2.4295630000e-01
115    2 1.0 
      6.2067140000e+00       4.1440260000e-01
      2.5764900000e+00       2.3744970000e-01
115    1 1.0 
      5.7696340000e-01       1.0000000000e+00
115    1 1.0 
      2.2972830000e-01       1.0000000000e+00
115    1 1.0 
      9.5164440000e-02       1.0000000000e+00
112    4 1.0 
      3.4697230000e+01       5.3333660000e-03
      7.9582620000e+00       3.5864110000e-02
      2.3780830000e+00       1.4215870000e-01
      8.1433210000e-01       3.4270470000e-01
112    1 1.0 
      2.8887550000e-01       4.6445820000e-01
112    1 1.0 
      1.0056820000e-01       2.4955790000e-01
100    1 1.0 
      1.0970000000e+00       1.0000000000e+00
100    1 1.0 
      3.1800000000e-01       1.0000000000e+00
102    1 1.0 
      7.6100000000e-01       1.0000000000e+00
 
  10 0 
115    3 1.0 
      3.4061340000e+01       6.0251980000e-03
      5.1235750000e+00       4.5021090000e-02
      1.1646630000e+00       2.0189730000e-01
115    1 1.0 
      3.2723040000e-01       1.0000000000e+00
115    1 1.0 
      1.0307240000e-01       1.0000000000e+00
112    1 1.0 
      8.0000000000e-01       1.0000000000e+00
 
  11 0 
115    6 1.0 
      1.3575350000e+04       2.2245810000e-04
      2.0352330000e+03       1.7232740000e-03
      4.6322560000e+02       8.9255720000e-03
      1.3120020000e+02       3.5727980000e-02
      4.2853020000e+01       1.1076260000e-01
      1.5584190000e+01       2.4295630000e-01
115    2 1.0 
      6.2067140000e+00       4.1440260000e-01
      2.5764900000e+00       2.3744970000e-01
115    1 1.0 
      5.7696340000e-01       1.0000000000e+00
115    1 1.0 
      2.2972830000e-01       1.0000000000e+00
115    1 1.0 
      9.5164440000e-02       1.0000000000e+00
112    4 1.0 
      3.4697230000e+01       5.3333660000e-03
      7.9582620000e+00       3.5864110000e-02
      2.3780830000e+00       1.4215870000e-01
      8.1433210000e-01       3.4270470000e-01
112    1 1.0 
      2.8887550000e-01       4.6445820000e-01
112    1 1.0 
      1.0056820000e-01       2.4955790000e-01
100    1 1.0 
      1.0970000000e+00       1.0000000000e+00
100    1 1.0 
      3.1800000000e-01       1.0000000000e+00
102    1 1.0 
      7.6100000000e-01       1.0000000000e+00
 
  12 0 
115    3 1.0 
      3.4061340000e+01       6.0251980000e-03
      5.1235750000e+00       4.5021090000e-02
      1.1646630000e+00       2.0189730000e-01
115    1 1.0 
      3.2723040000e-01       1.0000000000e+00
115    1 1.0 
      1.0307240000e-01       1.0000000000e+00
112    1 1.0 
      8.0000000000e-01       1.0000000000e+00
 
[5D] 
[7F] 
[9G] 
[MO]
Sym= 
Ene= -1.023069400000e+01 
Spin= Alpha
Occup= 2    
    1     4.074486382143e-04
    2     2.793948436480e-03
    3    -5.515677416435e-04
    4     2.661770237253e-04
    5    -1.174469044777e-03
    6    -3.181363212768e-06
    7    -1.840590631540e-01
    8    -2.401173878544e-01
    9    -1.372288080274e-02
   10     4.639344542674e-03
   11    -7.859264032990e-04
   12    -5.532381008445e-05
   13     2.239701048877e-04
   14    -1.846812579095e-07
   15     6.381963770575e-04
   16    -2.753432541033e-03
   17    -7.165579964067e-06
   18    -1.362403720957e-05
   19     3.017165547724e-04
   20     1.058641391766e-06
   21     1.979936026174e-04
   22     2.985728491674e-07
   23    -1.281031007840e-06
   24     1.927206616309e-05
   25     3.062033785668e-06
   26     1.389856883145e-05
   27     1.524341464051e-06
   28    -5.656030567337e-06
   29     1.584155033111e-03
   30     6.893476730871e-04
   31     1.821419885847e-06
   32    -1.014947169118e-04
   33     4.077441012509e-04
   34     2.541779676093e-06
   35     1.660096538016e-06
   36    -4.153485398271e-05
   37     4.913000405698e-05
   38    -1.886567429770e-01
   39    -2.461070034412e-01
   40    -1.407693109270e-02
   41     4.779770469902e-03
   42    -1.140792296512e-03
   43    -2.228681239206e-04
   44     7.846307207230e-05
   45     2.060858309795e-08
   46     2.639709323451e-03
   47    -9.171075792734e-04
   48    -9.140045960721e-08
   49    -3.703037946270e-04
   50     2.283356998014e-05
   51     2.157130443471e-07
   52     2.130591285657e-04
   53     3.621458981469e-08
   54     3.974632508696e-08
   55    -1.637748371769e-05
   56     2.097373019616e-06
   57     1.990100169561e-05
   58     1.737735523321e-07
   59     5.733354899094e-07
   60    -1.451615935485e-03
   61     9.268592688452e-04
   62    -3.831700531728e-08
   63    -3.950954878995e-04
   64     1.426531189298e-04
   65    -5.694439847190e-07
   66    -7.075781268809e-07
   67     2.649214910654e-05
   68    -3.739617825268e-05
   69     4.132314237963e-04
   70     2.786149778486e-03
   71    -5.283386006089e-04
   72     1.158284011019e-03
   73    -3.798931633352e-04
   74     1.150706493862e-08
   75    -1.988472648210e-01
   76    -2.593840772077e-01
   77    -1.486594451776e-02
   78     5.134487597476e-03
   79    -1.926883993910e-03
   80    -1.818765431152e-04
   81    -1.693107739918e-04
   82     2.239172004244e-07
   83     2.015143642490e-03
   84     1.856285520504e-03
   85     7.579131595343e-06
   86    -3.855308705570e-04
   87    -3.253125898974e-04
   88    -8.488369443494e-07
   89     2.456597349247e-04
   90    -1.059612845019e-06
   91    -8.803858783700e-07
   92    -3.161687780970e-06
   93    -5.847799084841e-06
   94     2.556506699393e-05
   95    -4.410990327838e-06
   96    -3.546607593720e-06
   97    -1.689757932890e-04
   98    -1.698904334520e-03
   99    -1.913173093709e-06
  100    -3.066316543148e-04
  101    -2.873218326620e-04
  102     7.013131784537e-07
  103     3.012375973656e-06
  104    -5.586946399407e-06
  105     4.374284544158e-06
  106     4.260190249099e-04
  107     2.766920311195e-03
  108    -4.805676849379e-04
  109     9.214773978519e-04
  110     8.462049386985e-04
  111     3.301552196383e-06
  112    -1.840590803988e-01
  113    -2.401174103280e-01
  114    -1.372288210847e-02
  115     4.639344096716e-03
  116    -7.859209738961e-04
  117     5.532375112735e-05
  118    -2.239701439799e-04
  119     1.846814991738e-07
  120    -6.381946406232e-04
  121     2.753432633439e-03
  122     7.165578850103e-06
  123     1.362367766459e-05
  124    -3.017140805390e-04
  125    -1.058641705112e-06
  126     1.979936553845e-04
  127     2.985728414352e-07
  128    -1.281031001376e-06
  129     1.927204987313e-05
  130     3.062056903087e-06
  131     1.389859395858e-05
  132     1.524341368745e-06
  133    -5.656031891058e-06
  134     1.584154712657e-03
  135     6.893484370609e-04
  136    -1.821419804194e-06
  137     1.014946373449e-04
  138    -4.077441380614e-04
  139    -2.541779818271e-06
  140    -1.660096917584e-06
  141     4.153483562925e-05
  142    -4.912998697012e-05
  143     4.074486437537e-04
  144     2.793948596232e-03
  145    -5.515671330840e-04
  146    -2.661769728826e-04
  147     1.174469137452e-03
  148     3.181363362814e-06
  149    -1.886567733733e-01
  150    -2.461070430515e-01
  151    -1.407693341320e-02
  152     4.779769727935e-03
  153    -1.140798722470e-03
  154     2.228681654975e-04
  155    -7.846307818409e-05
  156    -2.060858313598e-08
  157    -2.639708658957e-03
  158     9.171071842407e-04
  159     9.140085455364e-08
  160     3.703062319461e-04
  161    -2.283440392317e-05
  162    -2.157129989962e-07
  163     2.130592095249e-04
  164     3.621459394957e-08
  165     3.974639180312e-08
  166    -1.637747113977e-05
  167     2.097367355218e-06
  168     1.990112500872e-05
  169     1.737738467204e-07
  170     5.733369713309e-07
  171    -1.451615772280e-03
  172     9.268592639977e-04
  173     3.831695173981e-08
  174     3.950955031103e-04
  175    -1.426531140887e-04
  176     5.694439384071e-07
  177     7.075781277263e-07
  178    -2.649212561159e-05
  179     3.739614743286e-05
  180     4.132314511300e-04
  181     2.786149664224e-03
  182    -5.283390920778e-04
  183    -1.158284098847e-03
  184     3.798931833738e-04
  185    -1.150705513305e-08
  186    -1.988472772961e-01
  187    -2.593840934660e-01
  188    -1.486594545907e-02
  189     5.134487257855e-03
  190    -1.926878381488e-03
  191     1.818765080284e-04
  192     1.693108402327e-04
  193    -2.239173612547e-07
  194    -2.015142225058e-03
  195    -1.856286787980e-03
  196    -7.579130206135e-06
  197     3.855291938296e-04
  198     3.253107252596e-04
  199     8.488374094969e-07
  200     2.456597748071e-04
  201    -1.059612822002e-06
  202    -8.803858971055e-07
  203    -3.161717881133e-06
  204    -5.847792824519e-06
  205     2.556507695234e-05
  206    -4.410990924710e-06
  207    -3.546608778694e-06
  208    -1.689767103578e-04
  209    -1.698904290777e-03
  210     1.913172983988e-06
  211     3.066316012787e-04
  212     2.873219125828e-04
  213    -7.013134917075e-07
  214    -3.012376199591e-06
  215     5.586938734405e-06
  216    -4.374267361264e-06
  217     4.260190272314e-04
  218     2.766920457438e-03
  219    -4.805670967105e-04
  220    -9.214773911096e-04
  221    -8.462050366678e-04
  222    -3.301552341694e-06
Sym= 
Ene= -1.023046000000e+01 
Spin= Alpha
Occup= 2    
    1     5.623745377325e-05
    2     7.649064208836e-05
    3     2.580618708783e-04
    4     7.582002499229e-04
    5    -1.601511128060e-04
    6    -8.183423186944e-07
    7    -9.224632922635e-02
    8    -1.202169525810e-01
    9    -6.982901758734e-03
   10    -2.893418487377e-03
   11    -1.101754376426e-03
   12    -6.863028825191e-04
   13    -2.369820779230e-05
   14     2.015564477383e-07
   15     1.669001198939e-02
   16     5.992551951005e-03
   17    -1.876728371196e-05
   18     2.201037819499e-03
   19     3.873606430496e-04
   20    -1.855586188926e-06
   21     2.571448960673e-04
   22     1.322252479594e-06
   23     1.930526746689e-07
   24     8.947826194549e-05
   25    -2.690585693396e-04
   26     3.032618653779e-04
   27     5.300747864814e-06
   28     8.012590808853e-06
   29     3.397394942787e-03
   30    -7.779530674708e-03
   31     2.113168081814e-06
   32    -8.669731623245e-04
   33    -1.262247970408e-04
   34     5.483589180132e-07
   35    -3.438195936377e-06
   36     2.699865422443e-05
   37    -1.023706708016e-04
   38     1.638894982076e-01
   39     2.135790830686e-01
   40     1.243308693847e-02
   41     4.745675143986e-03
   42     2.600838289810e-03
   43     4.392561278236e-05
   44    -6.052345088571e-04
   45     9.478675221436e-07
   46     8.102395270642e-03
   47     1.285677202018e-02
   48    -2.451787147675e-05
   49     5.415582933603e-04
   50     1.784998696159e-03
   51    -3.106794987758e-06
   52    -4.598900644477e-04
   53    -6.593748003559e-07
   54    -7.604146354152e-07
   55     8.540616917506e-05
   56     2.272347925730e-04
   57    -5.247187207899e-04
   58    -1.249650846900e-05
   59    -2.483794237820e-06
   60     3.761628139642e-03
   61     6.022001753821e-03
   62     2.845199061949e-06
   63    -1.153353817981e-04
   64    -7.293471450696e-04
   65     1.913031925331e-06
   66    -1.810192185926e-06
   67     1.441385752254e-04
   68    -1.328732910349e-04
   69    -1.013317374523e-04
   70    -1.184304826489e-04
   71    -4.765836475080e-04
   72    -3.641556260879e-04
   73     7.333525067939e-04
   74    -9.917254943101e-07
   75     2.714645863094e-01
   76     3.537574926226e-01
   77     2.066447878303e-02
   78     6.585587181788e-03
   79     6.496674699993e-03
   80     2.050593912114e-04
   81     3.378892958776e-04
   82    -1.196756557892e-06
   83     6.312500565660e-03
   84     1.859628643239e-03
   85    -8.773203707029e-06
   86     6.062503384857e-04
   87     5.730751060296e-05
   88    -1.032098605241e-06
   89    -7.708357778433e-04
   90     1.199253572449e-06
   91     2.470276925266e-07
   92     3.671667551455e-05
   93    -1.158418319206e-04
   94    -8.362789841916e-04
   95     3.573657402168e-06
   96    -2.216102329487e-06
   97     1.329181320080e-03
   98    -8.034011432014e-04
   99     1.028281221669e-06
  100     2.890230595360e-05
  101     2.208417887613e-04
  102    -3.328025306704e-07
  103    -1.888663268216e-06
  104    -2.299006813609e-04
  105     3.124217429280e-04
  106    -1.833275254877e-04
  107    -1.807291520799e-04
  108    -8.395597789148e-04
  109    -6.215753207095e-04
  110    -7.255085315055e-04
  111    -6.839526158006e-07
  112     9.224634891511e-02
  113     1.202169782512e-01
  114     6.982903271473e-03
  115     2.893417802886e-03
  116     1.101755041410e-03
  117    -6.863028912903e-04
  118    -2.369818461198e-05
  119     2.015563735313e-07
  120     1.669001202326e-02
  121     5.992551791814e-03
  122    -1.876728417220e-05
  123     2.201037751258e-03
  124     3.873607213407e-04
  125    -1.855586432677e-06
  126    -2.571449343167e-04
  127    -1.322252544682e-06
  128    -1.930525882657e-07
  129    -8.947825879736e-05
  130     2.690585746050e-04
  131    -3.032618559065e-04
  132    -5.300747940096e-06
  133    -8.012590434892e-06
  134    -3.397395045955e-03
  135     7.779530638175e-03
  136     2.113168242002e-06
  137    -8.669731747124e-04
  138    -1.262247714098e-04
  139     5.483591072771e-07
  140    -3.438195850434e-06
  141     2.699866811193e-05
  142    -1.023706913795e-04
  143    -5.623749043564e-05
  144    -7.649079824543e-05
  145    -2.580619022836e-04
  146     7.582002747800e-04
  147    -1.601512093876e-04
  148    -8.183425653378e-07
  149    -1.638894931202e-01
  150    -2.135790764193e-01
  151    -1.243308658592e-02
  152    -4.745675197758e-03
  153    -2.600838979892e-03
  154     4.392560586629e-05
  155    -6.052345086003e-04
  156     9.478675091645e-07
  157     8.102395455979e-03
  158     1.285677188898e-02
  159    -2.451787126573e-05
  160     5.415584630455e-04
  161     1.784998565266e-03
  162    -3.106794725147e-06
  163     4.598900717397e-04
  164     6.593748244329e-07
  165     7.604146949396e-07
  166    -8.540616545870e-05
  167    -2.272347991627e-04
  168     5.247187316278e-04
  169     1.249650848963e-05
  170     2.483794348123e-06
  171    -3.761628047758e-03
  172    -6.022001821164e-03
  173     2.845199071259e-06
  174    -1.153354093136e-04
  175    -7.293471438131e-04
  176     1.913031898871e-06
  177    -1.810192328229e-06
  178     1.441385956728e-04
  179    -1.328733124194e-04
  180     1.013317217980e-04
  181     1.184302942657e-04
  182     4.765836712813e-04
  183    -3.641555715926e-04
  184     7.333524974184e-04
  185    -9.917255435352e-07
  186    -2.714645752933e-01
  187    -3.537574782509e-01
  188    -2.066447797799e-02
  189    -6.585587357982e-03
  190    -6.496674425180e-03
  191     2.050593766058e-04
  192     3.378892928147e-04
  193    -1.196756520726e-06
  194     6.312500735813e-03
  195     1.859628661865e-03
  196    -8.773203167346e-06
  197     6.062503478383e-04
  198     5.730723861990e-05
  199    -1.032098574668e-06
  200     7.708357678298e-04
  201    -1.199253504138e-06
  202    -2.470276549872e-07
  203    -3.671668197675e-05
  204     1.158418331406e-04
  205     8.362789606894e-04
  206    -3.573657142712e-06
  207     2.216102473079e-06
  208    -1.329181402623e-03
  209     8.034012488901e-04
  210     1.028281088573e-06
  211     2.890227678856e-05
  212     2.208417847289e-04
  213    -3.328025367285e-07
  214    -1.888663112554e-06
  215    -2.299006820396e-04
  216     3.124217461400e-04
  217     1.833274998771e-04
  218     1.807289799612e-04
  219     8.395598742441e-04
  220    -6.215752573300e-04
  221    -7.255084912492e-04
  222    -6.839524126545e-07
Sym= 
Ene= -1.023042100000e+01 
Spin= Alpha
Occup= 2    
    1    -1.600862756837e-04
    2    -1.781053838873e-04
    3    -7.416328410577e-04
    4     8.095177681912e-05
    5     9.047517586526e-04
    6     4.293543823851e-07
    7     2.485604049827e-01
    8     3.239163702323e-01
    9     1.888140175164e-02
   10     6.761737833846e-03
   11     4.728151171767e-03
   12    -1.806158017299e-04
   13    -3.899084402152e-04
   14     1.209331516629e-06
   15     7.899103787777e-03
   16    -4.073603556327e-03
   17     4.910945834452e-06
   18     8.786043835760e-04
   19     3.794224042077e-05
   20    -6.536202373307e-09
   21    -7.011918581606e-04
   22    -5.096872373444e-07
   23     9.386582893611e-07
   24     1.328227924347e-04
   25    -5.855867165815e-05
   26    -7.876383654055e-04
   27    -3.096687376668e-06
   28     1.980879363112e-06
   29     1.928361681098e-03
   30    -2.737470609336e-03
   31    -5.055118016959e-07
   32    -2.960970229139e-04
   33    -2.316426141711e-04
   34    -1.573621865641e-06
   35    -1.770738613344e-06
   36    -2.052147999738e-04
   37     2.440614309611e-04
   38     2.129235763590e-01
   39     2.774699715642e-01
   40     1.620912834511e-02
   41     5.259547898689e-03
   42     4.914733343215e-03
   43     4.193984262244e-04
   44     3.429035621953e-04
   45    -7.669308704939e-07
   46     8.973524909133e-04
   47    -1.267757159269e-02
   48     1.970861955445e-05
   49    -1.304906257890e-04
   50    -1.531659622293e-03
   51     2.499490588860e-06
   52    -6.042587259145e-04
   53    -7.187597932268e-08
   54    -1.293518139920e-06
   55    -1.795683810576e-04
   56    -1.054125467277e-04
   57    -6.564373806958e-04
   58     6.235720429076e-06
   59    -1.006590635156e-05
   60    -3.707805287488e-03
   61    -4.365960532896e-03
   62    -2.287498544554e-06
   63     3.053678346923e-04
   64     5.191294595077e-04
   65    -2.050524963484e-06
   66     7.313134162248e-07
   67     1.596877654106e-04
   68    -2.535425901453e-04
   69    -1.433044609746e-04
   70    -1.449324668412e-04
   71    -6.548603318883e-04
   72    -8.525637382123e-04
   73    -2.280518485252e-04
   74     7.986643620477e-07
   75    -4.408362303541e-02
   76    -5.744524320849e-02
   77    -3.372229552839e-03
   78    -8.429353640672e-04
   79    -1.386898618421e-03
   80    -5.294196633633e-04
   81     4.856726735721e-04
   82    -4.219984017798e-07
   83     1.194565341369e-02
   84    -1.435299262880e-02
   85     1.725682168399e-05
   86     1.480091084272e-03
   87    -1.854143377348e-03
   88     2.318176400044e-06
   89     1.264770230139e-04
   90    -8.027178241465e-07
   91     1.001219075489e-06
   92     2.987363729247e-04
   93    -6.827850412955e-06
   94     1.254973768187e-04
   95     1.018711761268e-06
   96     9.355804671212e-06
   97     8.975798674790e-03
   98    -6.750177854471e-04
   99    -2.025076923978e-06
  100    -6.450130063693e-04
  101     6.661233139524e-04
  102    -3.616011101234e-06
  103    -1.079645286752e-06
  104     7.752601350508e-05
  105    -3.181261004884e-05
  106     3.099867616728e-05
  107     2.178604315198e-05
  108     1.431889709885e-04
  109     6.191915408124e-04
  110    -4.480505033270e-04
  111     7.604376191826e-07
  112    -2.485603911630e-01
  113    -3.239163521980e-01
  114    -1.888140070845e-02
  115    -6.761738309433e-03
  116    -4.728151397711e-03
  117    -1.806158137670e-04
  118    -3.899084233057e-04
  119     1.209331512092e-06
  120     7.899103918175e-03
  121    -4.073603866958e-03
  122     4.910945739960e-06
  123     8.786044960530e-04
  124     3.794217433426e-05
  125    -6.536299614418e-09
  126     7.011918513704e-04
  127     5.096872196575e-07
  128    -9.386582154234e-07
  129    -1.328228010872e-04
  130     5.855867850860e-05
  131     7.876383884377e-04
  132     3.096687255207e-06
  133    -1.980878560337e-06
  134    -1.928361881121e-03
  135     2.737470600432e-03
  136    -5.055116880189e-07
  137    -2.960970515859e-04
  138    -2.316425784984e-04
  139    -1.573621626557e-06
  140    -1.770738491620e-06
  141    -2.052148165687e-04
  142     2.440614471923e-04
  143     1.600862419856e-04
  144     1.781051162040e-04
  145     7.416328718071e-04
  146     8.095181241131e-05
  147     9.047516634176e-04
  148     4.293541347689e-07
  149    -2.129235659423e-01
  150    -2.774699579632e-01
  151    -1.620912759374e-02
  152    -5.259548074512e-03
  153    -4.914733697002e-03
  154     4.193984159626e-04
  155     3.429035756726e-04
  156    -7.669307742269e-07
  157     8.973527156176e-04
  158    -1.267757183365e-02
  159     1.970861939136e-05
  160    -1.304906729883e-04
  161    -1.531659697462e-03
  162     2.499491017102e-06
  163     6.042587292309e-04
  164     7.187596582590e-08
  165     1.293518197592e-06
  166     1.795683919338e-04
  167     1.054125507622e-04
  168     6.564373782300e-04
  169    -6.235720316717e-06
  170     1.006590640596e-05
  171     3.707805480146e-03
  172     4.365960518902e-03
  173    -2.287498556905e-06
  174     3.053678044517e-04
  175     5.191294894836e-04
  176    -2.050525100455e-06
  177     7.313133145666e-07
  178     1.596877824686e-04
  179    -2.535426164508e-04
  180     1.433044316850e-04
  181     1.449322014495e-04
  182     6.548604575736e-04
  183    -8.525636563531e-04
  184    -2.280518873973e-04
  185     7.986643552254e-07
  186     4.408365167488e-02
  187     5.744528055001e-02
  188     3.372231705310e-03
  189     8.429346692487e-04
  190     1.386899550031e-03
  191    -5.294196888363e-04
  192     4.856726515756e-04
  193    -4.219984297639e-07
  194     1.194565353419e-02
  195    -1.435299253108e-02
  196     1.725682283866e-05
  197     1.480090970131e-03
  198    -1.854143513885e-03
  199     2.318176333864e-06
  200    -1.264770804207e-04
  201     8.027179784293e-07
  202    -1.001219009531e-06
  203    -2.987363745051e-04
  204     6.827842529269e-06
  205    -1.254974021997e-04
  206    -1.018711467508e-06
  207    -9.355804545605e-06
  208    -8.975798683414e-03
  209     6.750179122761e-04
  210    -2.025077219013e-06
  211    -6.450130362724e-04
  212     6.661232910946e-04
  213    -3.616011084963e-06
  214    -1.079644998393e-06
  215     7.752604043666e-05
  216    -3.181264368405e-05
  217    -3.099872838872e-05
  218    -2.178628108572e-05
  219    -1.431889785350e-04
  220     6.191916533859e-04
  221    -4.480504058259e-04
  222     7.604380163325e-07
Sym= 
Ene= -1.022986100000e+01 
Spin= Alpha
Occup= 2    
    1     1.337111039701e-04
    2    -6.774749759023e-05
    3     4.356203623173e-04
    4    -2.818216442952e-04
    5    -4.057485110433e-04
    6    -6.970110598767e-07
    7    -9.724855692799e-02
    8    -1.267002563812e-01
    9    -7.538902814746e-03
   10     3.216797168646e-03
   11    -7.078535201061e-03
   12     1.794715535336e-04
   13     1.565430509145e-04
   14     1.056522084478e-07
   15    -2.043662079257e-03
   16    -2.545626526121e-05
   17    -4.505205415333e-06
   18    -2.677344193112e-03
   19     7.030005220516e-04
   20     1.035193336001e-06
   21     3.070059439719e-04
   22     4.780032969345e-08
   23    -8.241223288587e-07
   24    -1.612948435866e-04
   25     1.795558534965e-04
   26     7.434855495958e-05