
                                 *****************
                                 * O   R   C   A *
                                 *****************

           --- An Ab Initio, DFT and Semiempirical electronic structure package ---

                  #######################################################
                  #                        -***-                        #
                  #  Department of molecular theory and spectroscopy    #
                  #              Directorship: Frank Neese              #
                  # Max Planck Institute for Chemical Energy Conversion #
                  #                  D-45470 Muelheim/Ruhr              #
                  #                       Germany                       #
                  #                                                     #
                  #                  All rights reserved                #
                  #                        -***-                        #
                  #######################################################


                         Program Version 4.0.1 -  RELEASE  -


 With contributions from (in alphabetic order):
   Daniel Aravena         : Magnetic Properties
   Michael Atanasov       : Ab Initio Ligand Field Theory
   Ute Becker             : Parallelization
   Martin Brehm           : Molecular dynamics
   Dmytro Bykov           : SCF Hessian
   Vijay G. Chilkuri      : MRCI spin determinant printing
   Dipayan Datta          : RHF DLPNO-CCSD density
   Achintya Kumar Dutta   : EOM-CC, STEOM-CC
   Dmitry Ganyushin       : Spin-Orbit,Spin-Spin,Magnetic field MRCI
   Yang Guo               : DLPNO-NEVPT2, CIM, IAO-localization
   Andreas Hansen         : Spin unrestricted coupled pair/coupled cluster methods
   Lee Huntington         : MR-EOM, pCC
   Robert Izsak           : Overlap fitted RIJCOSX, COSX-SCS-MP3, EOM
   Christian Kollmar      : KDIIS, OOCD, Brueckner-CCSD(T), CCSD density
   Simone Kossmann        : Meta GGA functionals, TD-DFT gradient, OOMP2, MP2 Hessian
   Martin Krupicka        : AUTO-CI
   Dagmar Lenk            : GEPOL surface
   Dimitrios Liakos       : Extrapolation schemes; parallel MDCI
   Dimitrios Manganas     : ROCIS; embedding schemes
   Dimitrios Pantazis     : SARC Basis sets
   Taras Petrenko         : DFT Hessian,TD-DFT gradient, ASA, ECA, R-Raman, ABS, FL, XAS/XES, NRVS
   Peter Pinski           : DLPNO-MP2
   Christoph Reimann      : Effective Core Potentials
   Marius Retegan         : Local ZFS, SOC
   Christoph Riplinger    : Optimizer, TS searches, QM/MM, DLPNO-CCSD(T), (RO)-DLPNO pert. Triples
   Tobias Risthaus        : Range-separated hybrids, TD-DFT gradient, RPA, STAB
   Michael Roemelt        : Restricted open shell CIS
   Masaaki Saitow         : Open-shell DLPNO
   Barbara Sandhoefer     : DKH picture change effects
   Kantharuban Sivalingam : CASSCF convergence, NEVPT2, FIC-MRCI
   Georgi Stoychev        : AutoAux
   Boris Wezisla          : Elementary symmetry handling
   Frank Wennmohs         : Technical directorship


 We gratefully acknowledge several colleagues who have allowed us to
 interface, adapt or use parts of their codes:
   Stefan Grimme, W. Hujo, H. Kruse,             : VdW corrections, initial TS optimization,
                  C. Bannwarth                     DFT functionals, gCP, sTDA/sTD-DF
   Ed Valeev                                     : LibInt (2-el integral package), F12 methods
   Garnet Chan, S. Sharma, J. Yang, R. Olivares  : DMRG
   Ulf Ekstrom                                   : XCFun DFT Library
   Mihaly Kallay                                 : mrcc  (arbitrary order and MRCC methods)
   Andreas Klamt, Michael Diedenhofen            : otool_cosmo (COSMO solvation model)
   Jiri Pittner, Ondrej Demel                    : Mk-CCSD
   Frank Weinhold                                : gennbo (NPA and NBO analysis)
   Christopher J. Cramer and Donald G. Truhlar   : smd solvation model


 Your calculation uses the libint2 library for the computation of 2-el integrals
 For citations please refer to: http://libint.valeyev.net

 This ORCA versions uses:
   CBLAS   interface :  Fast vector & matrix operations
   LAPACKE interface :  Fast linear algebra routines
   SCALAPACK package :  Parallel linear algebra routines


Your calculation utilizes the basis: cc-pVTZ 
       H, B-Ne : Obtained from the ccRepo (grant-hill.group.shef.ac.uk/ccrepo) Feb. 2017
                 T. H. Dunning, Jr., J. Chem. Phys. 90, 1007 (1989)
            He : Obtained from the ccRepo (grant-hill.group.shef.ac.uk/ccrepo) Feb. 2017
                 D. E. Woon, T. H. Dunning, Jr., J. Chem. Phys. 100, 2975 (1994)
  Li-Be, Na-Mg : Obtained from the ccRepo (grant-hill.group.shef.ac.uk/ccrepo) Feb. 2017
                 B. P. Prascher, D. E. Woon, K. A. Peterson, T. H. Dunning, Jr., A. K. Wilson, Theor. Chem. Acc. 128, 69 (2011)
         Al-Ar : Obtained from the ccRepo (grant-hill.group.shef.ac.uk/ccrepo) Feb. 2017
                 D. E. Woon, T. H. Dunning, Jr., J. Chem. Phys. 98, 1358 (1993)
            Ca : Obtained from the Peterson Research Group Website (tyr0.chem.wsu.edu/~kipeters) Feb. 2017
                 J. Koput, K. A. Peterson, J. Phys. Chem. 106, 9595 (2002)
         Sc-Zn : Obtained from the ccRepo (grant-hill.group.shef.ac.uk/ccrepo) Feb. 2017
                 N. B. Balabanov, K. A. Peterson, J. Chem. Phys. 123, 064107 (2005)
                 N. B. Balabanov, K. A. Peterson, J. Chem. Phys. 125, 074110 (2006)
         Ga-Kr : Obtained from the ccRepo (grant-hill.group.shef.ac.uk/ccrepo) Feb. 2017
                 A. K. Wilson, D. E. Woon, K. A. Peterson, T. H. Dunning, Jr., J. Chem. Phys. 110, 7667 (1999)
             Y : Obtained from the ccRepo (grant-hill.group.shef.ac.uk/ccrepo) Feb. 2017
                 K. A. Peterson, D. Figgen, M. Dolg, H. Stoll, J. Chem. Phys. 126, 124101 (2007)
        Ag, Au : Obtained from the Peterson Research Group Website (tyr0.chem.wsu.edu/~kipeters) Feb. 2017
                 K. A. Peterson, C. Puzzarini, Theor. Chem. Acc. 114, 283 (2005)

Your calculation utilizes the auxiliary basis: def2/J
   F. Weigend, Phys. Chem. Chem. Phys. 8, 1057 (2006).

================================================================================
                                        WARNINGS
                       Please study these warnings very carefully!
================================================================================

Warning: TCutStore was < 0. Adjusted to Thresh (uncritical)

INFO   : the flag for use of LIBINT has been found!

================================================================================
                                       INPUT FILE
================================================================================
NAME = system.inp
|  1> * xyz  0 1
|  2>   C   11.78282594829233     10.81649346386566      9.87180433161099
|  3>   C   10.45899449417260     11.19904222317435      9.52727451754626
|  4>   S   9.29339360574428     10.31048075143597     10.31744739220619
|  5>   C   10.45105888682616      9.41870283236093     11.11558724151590
|  6>   C   11.77813220207481      9.79775715595355     10.78064743051664
|  7>   H   12.65976618436687     11.28894997108439      9.45231813281897
|  8>   H   10.19045646721663     11.98158554391282      8.82831650205907
|  9>   H   10.17489818126792      8.63671660483904     11.81219735590970
| 10>   H   12.65077403003839      9.32267145337330     11.20610709581628
| 11> * 
| 12> 
| 13> %pal
| 14>  nprocs 4
| 15> end
| 16> 
| 17>  
| 18> 
| 19> ! DFT  PBE0 RIJK cc-pVTZ
| 20> 
| 21> 
| 22>                          ****END OF INPUT****
================================================================================

                       ****************************
                       * Single Point Calculation *
                       ****************************

---------------------------------
CARTESIAN COORDINATES (ANGSTROEM)
---------------------------------
  C     11.782826   10.816493    9.871804
  C     10.458994   11.199042    9.527275
  S      9.293394   10.310481   10.317447
  C     10.451059    9.418703   11.115587
  C     11.778132    9.797757   10.780647
  H     12.659766   11.288950    9.452318
  H     10.190456   11.981586    8.828317
  H     10.174898    8.636717   11.812197
  H     12.650774    9.322671   11.206107

----------------------------
CARTESIAN COORDINATES (A.U.)
----------------------------
  NO LB      ZA    FRAG     MASS         X           Y           Z
   0 C     6.0000    0    12.011   22.266314   20.440210   18.655007
   1 C     6.0000    0    12.011   19.764635   21.163123   18.003940
   2 S    16.0000    0    32.060   17.561969   19.483985   19.497150
   3 C     6.0000    0    12.011   19.749639   17.798769   21.005416
   4 C     6.0000    0    12.011   22.257444   18.515078   20.372471
   5 H     1.0000    0     1.008   23.923491   21.333024   17.862293
   6 H     1.0000    0     1.008   19.257172   22.641915   16.683100
   7 H     1.0000    0     1.008   19.227771   16.321029   22.321818
   8 H     1.0000    0     1.008   23.906498   17.617296   21.176473

--------------------------------
INTERNAL COORDINATES (ANGSTROEM)
--------------------------------
 C      0   0   0     0.000000000000     0.00000000     0.00000000
 C      1   0   0     1.420413342990     0.00000000     0.00000000
 S      2   1   0     1.665094619537   113.17844197     0.00000000
 C      3   2   1     1.665077769664    91.52307865     0.00000000
 C      1   2   3     1.365225796248   111.05331796     0.00000000
 H      1   2   3     1.080836712846   122.97815636   180.00211243
 H      2   1   3     1.083064646347   125.60615027   179.99929700
 H      4   3   2     1.083066409231   121.17935260   180.01998473
 H      5   1   2     1.080845091354   125.96318041   179.97455372

---------------------------
INTERNAL COORDINATES (A.U.)
---------------------------
 C      0   0   0     0.000000000000     0.00000000     0.00000000
 C      1   0   0     2.684192215219     0.00000000     0.00000000
 S      2   1   0     3.146572817991   113.17844197     0.00000000
 C      3   2   1     3.146540976345    91.52307865     0.00000000
 C      1   2   3     2.579902865873   111.05331796     0.00000000
 H      1   2   3     2.042485382768   122.97815636   180.00211243
 H      2   1   3     2.046695566929   125.60615027   179.99929700
 H      4   3   2     2.046698898296   121.17935260   180.01998473
 H      5   1   2     2.042501215853   125.96318041   179.97455372

---------------------
BASIS SET INFORMATION
---------------------
There are 3 groups of distinct atoms

 Group   1 Type C   : 18s5p2d1f contracted to 4s3p2d1f pattern {8811/311/11/1}
 Group   2 Type S   : 41s16p2d1f contracted to 5s4p2d1f pattern {13131311/7711/11/1}
 Group   3 Type H   : 5s2p1d contracted to 3s2p1d pattern {311/11/1}

Atom   0C    basis set group =>   1
Atom   1C    basis set group =>   1
Atom   2S    basis set group =>   2
Atom   3C    basis set group =>   1
Atom   4C    basis set group =>   1
Atom   5H    basis set group =>   3
Atom   6H    basis set group =>   3
Atom   7H    basis set group =>   3
Atom   8H    basis set group =>   3
-------------------------------
AUXILIARY BASIS SET INFORMATION
-------------------------------
There are 3 groups of distinct atoms

 Group   1 Type C   : 12s5p4d2f1g contracted to 6s4p3d1f1g pattern {711111/2111/211/2/1}
 Group   2 Type S   : 14s5p5d2f1g contracted to 8s4p3d1f1g pattern {71111111/2111/311/2/1}
 Group   3 Type H   : 5s2p1d contracted to 3s1p1d pattern {311/2/1}

Atom   0C    basis set group =>   1
Atom   1C    basis set group =>   1
Atom   2S    basis set group =>   2
Atom   3C    basis set group =>   1
Atom   4C    basis set group =>   1
Atom   5H    basis set group =>   3
Atom   6H    basis set group =>   3
Atom   7H    basis set group =>   3
Atom   8H    basis set group =>   3


           ************************************************************
           *        Program running with 4 parallel MPI-processes     *
           *              working on a common directory               *
           ************************************************************
------------------------------------------------------------------------------
                           ORCA GTO INTEGRAL CALCULATION
                           -- RI-GTO INTEGRALS CHOSEN --
------------------------------------------------------------------------------

                         BASIS SET STATISTICS AND STARTUP INFO

Gaussian basis set:
 # of primitive gaussian shells          ...  196
 # of primitive gaussian functions       ...  370
 # of contracted shells                  ...   76
 # of contracted basis functions         ...  210
 Highest angular momentum                ...    3
 Maximum contraction depth               ...   13
Auxiliary gaussian basis set:
 # of primitive gaussian shells          ...  155
 # of primitive gaussian functions       ...  421
 # of contracted shells                  ...   97
 # of contracted aux-basis functions     ...  291
 Highest angular momentum                ...    4
 Maximum contraction depth               ...    7
Ratio of auxiliary to basis functions    ...  1.39
Integral package used                  ... LIBINT
 One Electron integrals                  ... done
 Ordering auxiliary basis shells         ... done
 Integral threshhold             Thresh  ...  1.000e-10
 Primitive cut-off               TCut    ...  1.000e-11
 Pre-screening matrix                    ... done
 Shell pair data                         ... 
 Ordering of the shell pairs             ... done (   0.000 sec) 2899 of 2926 pairs
 Determination of significant pairs      ... done (   0.000 sec)
 Creation of shell pair data             ... done (   0.001 sec)
 Storage of shell pair data              ... done (   0.001 sec)
 Shell pair data done in (   0.002 sec)
 Computing two index integrals           ... done
 Cholesky decomposition of the V-matrix  ... done


Timings:
 Total evaluation time                   ...   0.254 sec (  0.004 min)
 One electron matrix time                ...   0.019 sec (  0.000 min) =  7.6%
 Schwartz matrix evaluation time         ...   0.215 sec (  0.004 min) = 84.6%
 Two index repulsion integral time       ...   0.002 sec (  0.000 min) =  0.7%
 Cholesky decomposition of V             ...   0.001 sec (  0.000 min) =  0.4%
 Three index repulsion integral time     ...   0.000 sec (  0.000 min) =  0.0%



           ************************************************************
           *        Program running with 4 parallel MPI-processes     *
           *              working on a common directory               *
           ************************************************************
-------------------------------------------------------------------------------
                                 ORCA SCF
-------------------------------------------------------------------------------

------------
SCF SETTINGS
------------
Hamiltonian:
 Density Functional     Method          .... DFT(GTOs)
 Exchange Functional    Exchange        .... PBE
   PBE kappa parameter   XKappa         ....  0.804000
   PBE mue parameter    XMuePBE         ....  0.219520
 Correlation Functional Correlation     .... PBE
   PBE beta parameter  CBetaPBE         ....  0.066725
 LDA part of GGA corr.  LDAOpt          .... PW91-LDA
 Gradients option       PostSCFGGA      .... off
 Hybrid DFT is turned on
   Fraction HF Exchange ScalHFX         ....  0.250000
   Scaling of DF-GGA-X  ScalDFX         ....  0.750000
   Scaling of DF-GGA-C  ScalDFC         ....  1.000000
   Scaling of DF-LDA-C  ScalLDAC        ....  1.000000
   Perturbative correction              ....  0.000000
   NL short-range parameter             ....  6.900000
 RI-approximation to the Coulomb term is turned on
   Number of auxiliary basis functions  .... 291
   RI-JK (J+K treated both via RI)      .... on


General Settings:
 Integral files         IntName         .... system
 Hartree-Fock type      HFTyp           .... RHF
 Total Charge           Charge          ....    0
 Multiplicity           Mult            ....    1
 Number of Electrons    NEL             ....   44
 Basis Dimension        Dim             ....  210
 Nuclear Repulsion      ENuc            ....    204.4698146788 Eh

Convergence Acceleration:
 DIIS                   CNVDIIS         .... on
   Start iteration      DIISMaxIt       ....    12
   Startup error        DIISStart       ....  0.200000
   # of expansion vecs  DIISMaxEq       ....     5
   Bias factor          DIISBfac        ....   1.050
   Max. coefficient     DIISMaxC        ....  10.000
 Newton-Raphson         CNVNR           .... off
 SOSCF                  CNVSOSCF        .... on
   Start iteration      SOSCFMaxIt      ....   150
   Startup grad/error   SOSCFStart      ....  0.003300
 Level Shifting         CNVShift        .... on
   Level shift para.    LevelShift      ....    0.2500
   Turn off err/grad.   ShiftErr        ....    0.0010
 Zerner damping         CNVZerner       .... off
 Static damping         CNVDamp         .... on
   Fraction old density DampFac         ....    0.7000
   Max. Damping (<1)    DampMax         ....    0.9800
   Min. Damping (>=0)   DampMin         ....    0.0000
   Turn off err/grad.   DampErr         ....    0.1000
 Fernandez-Rico         CNVRico         .... off

SCF Procedure:
 Maximum # iterations   MaxIter         ....   125
 SCF integral mode      SCFMode         .... Direct
   Integral package                     .... LIBINT
 Reset frequeny         DirectResetFreq ....    20
 Integral Threshold     Thresh          ....  1.000e-10 Eh
 Primitive CutOff       TCut            ....  1.000e-11 Eh

Convergence Tolerance:
 Convergence Check Mode ConvCheckMode   .... Total+1el-Energy
 Convergence forced     ConvForced      .... 0
 Energy Change          TolE            ....  1.000e-06 Eh
 1-El. energy change                    ....  1.000e-03 Eh
 Orbital Gradient       TolG            ....  5.000e-05
 Orbital Rotation angle TolX            ....  5.000e-05
 DIIS Error             TolErr          ....  1.000e-06


Diagonalization of the overlap matrix:
Smallest eigenvalue                        ... 1.690e-04
Time for diagonalization                   ...    0.007 sec
Threshold for overlap eigenvalues          ... 1.000e-08
Number of eigenvalues below threshold      ... 0
Time for construction of square roots      ...    0.004 sec
Total time needed                          ...    0.011 sec

-------------------
DFT GRID GENERATION
-------------------

General Integration Accuracy     IntAcc      ...  4.340
Radial Grid Type                 RadialGrid  ... Gauss-Chebyshev
Angular Grid (max. acc.)         AngularGrid ... Lebedev-110
Angular grid pruning method      GridPruning ... 3 (G Style)
Weight generation scheme         WeightScheme... Becke
Basis function cutoff            BFCut       ...    1.0000e-10
Integration weight cutoff        WCut        ...    1.0000e-14
Grids for H and He will be reduced by one unit

# of grid points (after initial pruning)     ...  11606 (   0.0 sec)
# of grid points (after weights+screening)   ...  11085 (   0.0 sec)
nearest neighbour list constructed           ...    0.0 sec
Grid point re-assignment to atoms done       ...    0.0 sec
Grid point division into batches done        ...    0.0 sec
Reduced shell lists constructed in    0.1 sec

Total number of grid points                  ...    11085
Total number of batches                      ...      177
Average number of points per batch           ...       62
Average number of grid points per atom       ...     1232
Average number of shells per batch           ...    66.09 (86.96%)
Average number of basis functions per batch  ...   181.43 (86.40%)
Average number of large shells per batch     ...    57.93 (87.66%)
Average number of large basis fcns per batch ...   160.37 (88.39%)
Average number of aux-shells per batch       ...    66.09 (68.13%)
Average number of aux functions per batch    ...   181.43 (62.35%)
Maximum spatial batch extension              ...  17.85, 25.22, 25.22 au
Average spatial batch extension              ...   0.76,  1.02,  1.02 au

Time for grid setup =    0.090 sec

------------------------------
INITIAL GUESS: MODEL POTENTIAL
------------------------------
Loading Hartree-Fock densities                     ... done
Calculating cut-offs                               ... done
Setting up the integral package                    ... done
Initializing the effective Hamiltonian             ... done
Starting the Coulomb interaction                   ... done (   0.0 sec)
Reading the grid                                   ... done
Mapping shells                                     ... done
Starting the XC term evaluation                    ... done (   0.1 sec)
  promolecular density results
     # of electrons  =     43.995817508
     EX              =    -46.546254630
     EC              =     -1.543014036
     EX+EC           =    -48.089268666
Transforming the Hamiltonian                       ... done (   0.0 sec)
Diagonalizing the Hamiltonian                      ... done (   0.0 sec)
Back transforming the eigenvectors                 ... done (   0.0 sec)
Now organizing SCF variables                       ... done
                      ------------------
                      INITIAL GUESS DONE (   0.3 sec)
                      ------------------
--------------
SCF ITERATIONS
--------------
ITER       Energy         Delta-E        Max-DP      RMS-DP      [F,P]     Damp
  0   -552.0167087450   0.000000000000 0.04062531  0.00094646  0.1406522 0.7000
  1   -552.0513722505  -0.034663505493 0.03196515  0.00080419  0.0835933 0.7000
                               ***Turning on DIIS***
  2   -552.0925222627  -0.041150012244 0.04983851  0.00129399  0.0322403 0.0000
  3   -552.1584408647  -0.065918602044 0.02590108  0.00062591  0.0633095 0.0000
  4   -552.1903709001  -0.031930035373 0.00925676  0.00029263  0.0227389 0.0000
  5   -552.1947016627  -0.004330762562 0.00442193  0.00013093  0.0082793 0.0000
  6   -552.1954057310  -0.000704068308 0.00217566  0.00005612  0.0036908 0.0000
                      *** Initiating the SOSCF procedure ***
                           *** Shutting down DIIS ***
                      *** Re-Reading the Fockian *** 
                      *** Removing any level shift *** 
ITER      Energy       Delta-E        Grad      Rot      Max-DP    RMS-DP
  7   -552.19550569  -0.0000999571  0.001170  0.001170  0.001822  0.000046
  8   -552.19552380  -0.0000181111  0.000413  0.001396  0.000480  0.000017
  9   -552.19552061   0.0000031924  0.000696  0.000960  0.000359  0.000010
 10   -552.19552554  -0.0000049293  0.000016  0.000061  0.000036  0.000001
                 **** Energy Check signals convergence ****
              ***Rediagonalizing the Fockian in SOSCF/NRSCF***

               *****************************************************
               *                     SUCCESS                       *
               *           SCF CONVERGED AFTER  11 CYCLES          *
               *****************************************************

Setting up the final grid:

General Integration Accuracy     IntAcc      ...  4.670
Radial Grid Type                 RadialGrid  ... Gauss-Chebyshev
Angular Grid (max. acc.)         AngularGrid ... Lebedev-302
Angular grid pruning method      GridPruning ... 3 (G Style)
Weight generation scheme         WeightScheme... Becke
Basis function cutoff            BFCut       ...    1.0000e-10
Integration weight cutoff        WCut        ...    1.0000e-14
Grids for H and He will be reduced by one unit

# of grid points (after initial pruning)     ...  45270 (   0.0 sec)
# of grid points (after weights+screening)   ...  42853 (   0.0 sec)
nearest neighbour list constructed           ...    0.0 sec
Grid point re-assignment to atoms done       ...    0.0 sec
Grid point division into batches done        ...    0.2 sec
Reduced shell lists constructed in    0.3 sec

Total number of grid points                  ...    42853
Total number of batches                      ...      674
Average number of points per batch           ...       63
Average number of grid points per atom       ...     4761
Average number of shells per batch           ...    63.85 (84.02%)
Average number of basis functions per batch  ...   174.48 (83.08%)
Average number of large shells per batch     ...    52.77 (82.64%)
Average number of large basis fcns per batch ...   145.79 (83.56%)
Maximum spatial batch extension              ...  15.21, 16.96, 17.14 au
Average spatial batch extension              ...   0.51,  0.56,  0.58 au

Final grid set up in    0.4 sec
Final integration                            ... done (   0.3 sec)
Change in XC energy                          ...    -0.000161018
Integrated number of electrons               ...    44.000017060
Previous integrated no of electrons          ...    43.999549197

----------------
TOTAL SCF ENERGY
----------------

Total Energy       :         -552.19568656 Eh          -15026.00854 eV

Components:
Nuclear Repulsion  :          204.46981468 Eh            5563.90652 eV
Electronic Energy  :         -756.66550124 Eh          -20589.91506 eV
One Electron Energy:        -1162.64017689 Eh          -31637.04761 eV
Two Electron Energy:          405.97467565 Eh           11047.13255 eV

Virial components:
Potential Energy   :        -1102.20974106 Eh          -29992.65185 eV
Kinetic Energy     :          550.01405450 Eh           14966.64331 eV
Virial Ratio       :            2.00396650


DFT components:
N(Alpha)           :       22.000008530244 electrons
N(Beta)            :       22.000008530244 electrons
N(Total)           :       44.000017060487 electrons
E(X)               :      -35.191883198459 Eh       
E(C)               :       -1.549962027248 Eh       
E(XC)              :      -36.741845225708 Eh       

---------------
SCF CONVERGENCE
---------------

  Last Energy change         ...   -6.4010e-09  Tolerance :   1.0000e-06
  Last MAX-Density change    ...    2.4491e-05  Tolerance :   1.0000e-05
  Last RMS-Density change    ...    4.1611e-07  Tolerance :   1.0000e-06
  Last Orbital Gradient      ...    1.4503e-05  Tolerance :   5.0000e-05
  Last Orbital Rotation      ...    4.2047e-05  Tolerance :   5.0000e-05

             **** THE GBW FILE WAS UPDATED (system.gbw) ****
             **** DENSITY FILE WAS UPDATED (system.scfp.tmp) ****
             **** ENERGY FILE WAS UPDATED (system.en.tmp) ****
----------------
ORBITAL ENERGIES
----------------

  NO   OCC          E(Eh)            E(eV) 
   0   2.0000     -89.094209     -2424.3767 
   1   2.0000     -10.250829      -278.9392 
   2   2.0000     -10.250796      -278.9383 
   3   2.0000     -10.230943      -278.3981 
   4   2.0000     -10.230209      -278.3781 
   5   2.0000      -7.973889      -216.9806 
   6   2.0000      -5.891598      -160.3185 
   7   2.0000      -5.887933      -160.2188 
   8   2.0000      -5.876113      -159.8972 
   9   2.0000      -0.915351       -24.9080 
  10   2.0000      -0.770274       -20.9602 
  11   2.0000      -0.733231       -19.9522 
  12   2.0000      -0.576946       -15.6995 
  13   2.0000      -0.571389       -15.5483 
  14   2.0000      -0.533387       -14.5142 
  15   2.0000      -0.410704       -11.1758 
  16   2.0000      -0.408013       -11.1026 
  17   2.0000      -0.402581       -10.9548 
  18   2.0000      -0.400527       -10.8989 
  19   2.0000      -0.367175        -9.9913 
  20   2.0000      -0.272918        -7.4265 
  21   2.0000      -0.239261        -6.5106 
  22   0.0000      -0.016513        -0.4493 
  23   0.0000       0.040761         1.1092 
  24   0.0000       0.056366         1.5338 
  25   0.0000       0.061036         1.6609 
  26   0.0000       0.095822         2.6075 
  27   0.0000       0.099371         2.7040 
  28   0.0000       0.114724         3.1218 
  29   0.0000       0.129067         3.5121 
  30   0.0000       0.189089         5.1454 
  31   0.0000       0.226716         6.1693 
  32   0.0000       0.231474         6.2987 
  33   0.0000       0.269046         7.3211 
  34   0.0000       0.281191         7.6516 
  35   0.0000       0.297225         8.0879 
  36   0.0000       0.323383         8.7997 
  37   0.0000       0.340281         9.2595 
  38   0.0000       0.342965         9.3326 
  39   0.0000       0.355026         9.6607 
  40   0.0000       0.376877        10.2554 
  41   0.0000       0.380026        10.3410 
  42   0.0000       0.398192        10.8353 
  43   0.0000       0.398791        10.8517 
  44   0.0000       0.411182        11.1888 
  45   0.0000       0.416296        11.3280 
  46   0.0000       0.443767        12.0755 
  47   0.0000       0.447524        12.1777 
  48   0.0000       0.462188        12.5768 
  49   0.0000       0.464586        12.6420 
  50   0.0000       0.493184        13.4202 
  51   0.0000       0.514268        13.9939 
  52   0.0000       0.525878        14.3099 
  53   0.0000       0.597058        16.2468 
  54   0.0000       0.599679        16.3181 
  55   0.0000       0.619785        16.8652 
  56   0.0000       0.646135        17.5822 
  57   0.0000       0.692971        18.8567 
  58   0.0000       0.697231        18.9726 
  59   0.0000       0.712181        19.3794 
  60   0.0000       0.721574        19.6350 
  61   0.0000       0.796569        21.6758 
  62   0.0000       0.812833        22.1183 
  63   0.0000       0.826324        22.4854 
  64   0.0000       0.861052        23.4304 
  65   0.0000       0.893545        24.3146 
  66   0.0000       0.926308        25.2061 
  67   0.0000       0.950005        25.8510 
  68   0.0000       0.964196        26.2371 
  69   0.0000       0.982041        26.7227 
  70   0.0000       1.009846        27.4793 
  71   0.0000       1.052852        28.6495 
  72   0.0000       1.056847        28.7583 
  73   0.0000       1.062346        28.9079 
  74   0.0000       1.102498        30.0005 
  75   0.0000       1.143861        31.1260 
  76   0.0000       1.203645        32.7528 
  77   0.0000       1.210387        32.9363 
  78   0.0000       1.222859        33.2757 
  79   0.0000       1.248337        33.9690 
  80   0.0000       1.262397        34.3516 
  81   0.0000       1.272551        34.6279 
  82   0.0000       1.293366        35.1943 
  83   0.0000       1.326071        36.0842 
  84   0.0000       1.327569        36.1250 
  85   0.0000       1.398937        38.0670 
  86   0.0000       1.413513        38.4636 
  87   0.0000       1.420519        38.6543 
  88   0.0000       1.452748        39.5313 
  89   0.0000       1.502143        40.8754 
  90   0.0000       1.564327        42.5675 
  91   0.0000       1.580192        42.9992 
  92   0.0000       1.584113        43.1059 
  93   0.0000       1.597793        43.4782 
  94   0.0000       1.622869        44.1605 
  95   0.0000       1.688772        45.9538 
  96   0.0000       1.760571        47.9076 
  97   0.0000       1.812787        49.3284 
  98   0.0000       1.853839        50.4455 
  99   0.0000       1.882752        51.2323 
 100   0.0000       1.945020        52.9267 
 101   0.0000       1.965335        53.4795 
 102   0.0000       1.967109        53.5278 
 103   0.0000       1.967407        53.5359 
 104   0.0000       1.984646        54.0050 
 105   0.0000       2.051211        55.8163 
 106   0.0000       2.108444        57.3737 
 107   0.0000       2.150441        58.5165 
 108   0.0000       2.198186        59.8157 
 109   0.0000       2.233578        60.7787 
 110   0.0000       2.261083        61.5272 
 111   0.0000       2.278219        61.9935 
 112   0.0000       2.281030        62.0700 
 113   0.0000       2.385886        64.9233 
 114   0.0000       2.417647        65.7875 
 115   0.0000       2.451301        66.7033 
 116   0.0000       2.462664        67.0125 
 117   0.0000       2.478859        67.4532 
 118   0.0000       2.549020        69.3624 
 119   0.0000       2.572062        69.9894 
 120   0.0000       2.644763        71.9676 
 121   0.0000       2.659396        72.3658 
 122   0.0000       2.681166        72.9582 
 123   0.0000       2.719139        73.9915 
 124   0.0000       2.741357        74.5961 
 125   0.0000       2.801007        76.2193 
 126   0.0000       2.830183        77.0132 
 127   0.0000       2.838123        77.2292 
 128   0.0000       2.880265        78.3760 
 129   0.0000       2.901046        78.9415 
 130   0.0000       2.922247        79.5184 
 131   0.0000       2.948934        80.2446 
 132   0.0000       2.965289        80.6896 
 133   0.0000       2.977571        81.0238 
 134   0.0000       2.997324        81.5613 
 135   0.0000       3.042004        82.7771 
 136   0.0000       3.047655        82.9309 
 137   0.0000       3.085338        83.9563 
 138   0.0000       3.096678        84.2649 
 139   0.0000       3.132079        85.2282 
 140   0.0000       3.139512        85.4305 
 141   0.0000       3.151418        85.7544 
 142   0.0000       3.176301        86.4316 
 143   0.0000       3.189042        86.7782 
 144   0.0000       3.220085        87.6230 
 145   0.0000       3.233523        87.9886 
 146   0.0000       3.237516        88.0973 
 147   0.0000       3.252592        88.5075 
 148   0.0000       3.337319        90.8131 
 149   0.0000       3.369250        91.6820 
 150   0.0000       3.372758        91.7774 
 151   0.0000       3.402513        92.5871 
 152   0.0000       3.428792        93.3022 
 153   0.0000       3.464422        94.2717 
 154   0.0000       3.485092        94.8342 
 155   0.0000       3.487689        94.9048 
 156   0.0000       3.571954        97.1978 
 157   0.0000       3.594244        97.8043 
 158   0.0000       3.604766        98.0907 
 159   0.0000       3.674995       100.0017 
 160   0.0000       3.683293       100.2275 
 161   0.0000       3.686242       100.3077 
 162   0.0000       3.719653       101.2169 
 163   0.0000       3.762938       102.3948 
 164   0.0000       3.787041       103.0506 
 165   0.0000       3.829690       104.2112 
 166   0.0000       3.832916       104.2989 
 167   0.0000       3.876114       105.4744 
 168   0.0000       3.928749       106.9067 
 169   0.0000       3.936255       107.1109 
 170   0.0000       3.939823       107.2080 
 171   0.0000       3.957783       107.6968 
 172   0.0000       4.026164       109.5575 
 173   0.0000       4.048642       110.1691 
 174   0.0000       4.086999       111.2129 
 175   0.0000       4.173081       113.5553 
 176   0.0000       4.211680       114.6056 
 177   0.0000       4.225079       114.9702 
 178   0.0000       4.255219       115.7904 
 179   0.0000       4.317044       117.4727 
 180   0.0000       4.322083       117.6098 
 181   0.0000       4.358990       118.6142 
 182   0.0000       4.359511       118.6283 
 183   0.0000       4.469638       121.6250 
 184   0.0000       4.510472       122.7362 
 185   0.0000       4.537505       123.4718 
 186   0.0000       4.573409       124.4488 
 187   0.0000       4.618625       125.6792 
 188   0.0000       4.682953       127.4296 
 189   0.0000       4.811251       130.9208 
 190   0.0000       4.822755       131.2338 
 191   0.0000       4.918218       133.8315 
 192   0.0000       4.965317       135.1132 
 193   0.0000       4.973024       135.3229 
 194   0.0000       5.007462       136.2600 
 195   0.0000       5.046783       137.3299 
 196   0.0000       5.126149       139.4896 
 197   0.0000       5.232181       142.3749 
 198   0.0000       5.339109       145.2845 
 199   0.0000       5.591990       152.1658 
 200   0.0000       5.634870       153.3326 
 201   0.0000       5.691244       154.8666 
 202   0.0000       5.815207       158.2398 
 203   0.0000       5.863385       159.5508 
 204   0.0000       6.147001       167.2684 
 205   0.0000       6.354204       172.9067 
 206   0.0000       9.569300       260.3939 
 207   0.0000      11.389281       309.9181 
 208   0.0000      12.140801       330.3680 
 209   0.0000      13.683227       372.3395 

                    ********************************
                    * MULLIKEN POPULATION ANALYSIS *
                    ********************************

-----------------------
MULLIKEN ATOMIC CHARGES
-----------------------
   0 C :   -0.125461
   1 C :   -0.215286
   2 S :    0.147727
   3 C :   -0.214911
   4 C :   -0.125406
   5 H :    0.121144
   6 H :    0.145664
   7 H :    0.145497
   8 H :    0.121032
Sum of atomic charges:    0.0000000

--------------------------------
MULLIKEN REDUCED ORBITAL CHARGES
--------------------------------
  0 C s       :     3.243506  s :     3.243506
      pz      :     0.937153  p :     2.775672
      px      :     0.912998
      py      :     0.925521
      dz2     :     0.019526  d :     0.097099
      dxz     :     0.024824
      dyz     :     0.007587
      dx2y2   :     0.017363
      dxy     :     0.027799
      f0      :     0.000950  f :     0.009185
      f+1     :     0.000947
      f-1     :     0.001391
      f+2     :     0.001370
      f-2     :     0.001612
      f+3     :     0.001631
      f-3     :     0.001284
  1 C s       :     3.226799  s :     3.226799
      pz      :     1.024935  p :     2.885229
      px      :     0.854794
      py      :     1.005500
      dz2     :     0.011759  d :     0.094884
      dxz     :     0.027349
      dyz     :     0.010252
      dx2y2   :     0.018144
      dxy     :     0.027380
      f0      :     0.000674  f :     0.008373
      f+1     :     0.001285
      f-1     :     0.000990
      f+2     :     0.001542
      f-2     :     0.001176
      f+3     :     0.001524
      f-3     :     0.001182
  2 S s       :     5.771359  s :     5.771359
      pz      :     3.279662  p :     9.848157
      px      :     3.353119
      py      :     3.215376
      dz2     :     0.055481  d :     0.211119
      dxz     :     0.042192
      dyz     :     0.027011
      dx2y2   :     0.038769
      dxy     :     0.047665
      f0      :     0.001776  f :     0.021639
      f+1     :     0.004450
      f-1     :     0.001608
      f+2     :     0.002699
      f-2     :     0.003694
      f+3     :     0.003989
      f-3     :     0.003422
  3 C s       :     3.226460  s :     3.226460
      pz      :     1.024450  p :     2.885266
      px      :     0.855630
      py      :     1.005186
      dz2     :     0.011730  d :     0.094815
      dxz     :     0.027476
      dyz     :     0.010168
      dx2y2   :     0.017963
      dxy     :     0.027478
      f0      :     0.000681  f :     0.008371
      f+1     :     0.001276
      f-1     :     0.000991
      f+2     :     0.001548
      f-2     :     0.001171
      f+3     :     0.001517
      f-3     :     0.001187
  4 C s       :     3.243585  s :     3.243585
      pz      :     0.937362  p :     2.775552
      px      :     0.912626
      py      :     0.925564
      dz2     :     0.019354  d :     0.097085
      dxz     :     0.025011
      dyz     :     0.007597
      dx2y2   :     0.017267
      dxy     :     0.027856
      f0      :     0.000959  f :     0.009185
      f+1     :     0.000934
      f-1     :     0.001391
      f+2     :     0.001375
      f-2     :     0.001607
      f+3     :     0.001629
      f-3     :     0.001290
  5 H s       :     0.844652  s :     0.844652
      pz      :     0.011251  p :     0.031948
      px      :     0.010008
      py      :     0.010688
      dz2     :     0.000365  d :     0.002256
      dxz     :     0.000433
      dyz     :     0.000298
      dx2y2   :     0.000733
      dxy     :     0.000428
  6 H s       :     0.816851  s :     0.816851
      pz      :     0.013996  p :     0.035175
      px      :     0.008342
      py      :     0.012837
      dz2     :     0.000626  d :     0.002310
      dxz     :     0.000399
      dyz     :     0.000379
      dx2y2   :     0.000432
      dxy     :     0.000475
  7 H s       :     0.816989  s :     0.816989
      pz      :     0.014037  p :     0.035203
      px      :     0.008320
      py      :     0.012845
      dz2     :     0.000624  d :     0.002311
      dxz     :     0.000395
      dyz     :     0.000382
      dx2y2   :     0.000438
      dxy     :     0.000472
  8 H s       :     0.844753  s :     0.844753
      pz      :     0.011254  p :     0.031958
      px      :     0.010011
      py      :     0.010693
      dz2     :     0.000370  d :     0.002257
      dxz     :     0.000428
      dyz     :     0.000301
      dx2y2   :     0.000734
      dxy     :     0.000424


                     *******************************
                     * LOEWDIN POPULATION ANALYSIS *
                     *******************************

----------------------
LOEWDIN ATOMIC CHARGES
----------------------
   0 C :   -0.028656
   1 C :   -0.212492
   2 S :    0.658880
   3 C :   -0.212518
   4 C :   -0.028749
   5 H :   -0.031651
   6 H :   -0.056596
   7 H :   -0.056592
   8 H :   -0.031625

-------------------------------
LOEWDIN REDUCED ORBITAL CHARGES
-------------------------------
  0 C s       :     2.708852  s :     2.708852
      pz      :     0.930310  p :     2.847972
      px      :     0.972896
      py      :     0.944766
      dz2     :     0.073895  d :     0.423856
      dxz     :     0.094291
      dyz     :     0.052727
      dx2y2   :     0.094395
      dxy     :     0.108549
      f0      :     0.005811  f :     0.047976
      f+1     :     0.005647
      f-1     :     0.005109
      f+2     :     0.005889
      f-2     :     0.008518
      f+3     :     0.009641
      f-3     :     0.007361
  1 C s       :     2.767232  s :     2.767232
      pz      :     0.981922  p :     2.975873
      px      :     1.010850
      py      :     0.983102
      dz2     :     0.046138  d :     0.428828
      dxz     :     0.114092
      dyz     :     0.053167
      dx2y2   :     0.095003
      dxy     :     0.120429
      f0      :     0.003613  f :     0.040559
      f+1     :     0.007666
      f-1     :     0.002482
      f+2     :     0.005233
      f-2     :     0.006237
      f+3     :     0.008690
      f-3     :     0.006640
  2 S s       :     5.263390  s :     5.263390
      pz      :     3.185277  p :     9.627552
      px      :     3.308841
      py      :     3.133433
      dz2     :     0.095669  d :     0.382736
      dxz     :     0.071091
      dyz     :     0.058502
      dx2y2   :     0.075291
      dxy     :     0.082182
      f0      :     0.004747  f :     0.067442
      f+1     :     0.013896
      f-1     :     0.003432
      f+2     :     0.008805
      f-2     :     0.011364
      f+3     :     0.013199
      f-3     :     0.012000
  3 C s       :     2.767178  s :     2.767178
      pz      :     0.981735  p :     2.975847
      px      :     1.011135
      py      :     0.982977
      dz2     :     0.046208  d :     0.428921
      dxz     :     0.114442
      dyz     :     0.053010
      dx2y2   :     0.094488
      dxy     :     0.120772
      f0      :     0.003664  f :     0.040573
      f+1     :     0.007589
      f-1     :     0.002507
      f+2     :     0.005284
      f-2     :     0.006200
      f+3     :     0.008643
      f-3     :     0.006686
  4 C s       :     2.708818  s :     2.708818
      pz      :     0.930257  p :     2.847987
      px      :     0.972985
      py      :     0.944745
      dz2     :     0.073397  d :     0.423953
      dxz     :     0.094709
      dyz     :     0.052726
      dx2y2   :     0.094390
      dxy     :     0.108730
      f0      :     0.005867  f :     0.047992
      f+1     :     0.005568
      f-1     :     0.005126
      f+2     :     0.005917
      f-2     :     0.008477
      f+3     :     0.009632
      f-3     :     0.007403
  5 H s       :     0.842465  s :     0.842465
      pz      :     0.047743  p :     0.160553
      px      :     0.064426
      py      :     0.048384
      dz2     :     0.004161  d :     0.028633
      dxz     :     0.006973
      dyz     :     0.002850
      dx2y2   :     0.007374
      dxy     :     0.007275
  6 H s       :     0.852608  s :     0.852608
      pz      :     0.066492  p :     0.174150
      px      :     0.037975
      py      :     0.069683
      dz2     :     0.007367  d :     0.029839
      dxz     :     0.004057
      dyz     :     0.008037
      dx2y2   :     0.005447
      dxy     :     0.004930
  7 H s       :     0.852610  s :     0.852610
      pz      :     0.066382  p :     0.174144
      px      :     0.038121
      py      :     0.069641
      dz2     :     0.007338  d :     0.029839
      dxz     :     0.004066
      dyz     :     0.008011
      dx2y2   :     0.005472
      dxy     :     0.004952
  8 H s       :     0.842448  s :     0.842448
      pz      :     0.047927  p :     0.160544
      px      :     0.064146
      py      :     0.048471
      dz2     :     0.004201  d :     0.028633
      dxz     :     0.006951
      dyz     :     0.002903
      dx2y2   :     0.007340
      dxy     :     0.007238


                      *****************************
                      * MAYER POPULATION ANALYSIS *
                      *****************************

  NA   - Mulliken gross atomic population
  ZA   - Total nuclear charge
  QA   - Mulliken gross atomic charge
  VA   - Mayer's total valence
  BVA  - Mayer's bonded valence
  FA   - Mayer's free valence

  ATOM       NA         ZA         QA         VA         BVA        FA
  0 C      6.1255     6.0000    -0.1255     3.8743     3.8743    -0.0000
  1 C      6.2153     6.0000    -0.2153     3.8685     3.8685     0.0000
  2 S     15.8523    16.0000     0.1477     2.8350     2.8350    -0.0000
  3 C      6.2149     6.0000    -0.2149     3.8685     3.8685     0.0000
  4 C      6.1254     6.0000    -0.1254     3.8748     3.8748     0.0000
  5 H      0.8789     1.0000     0.1211     0.9980     0.9980    -0.0000
  6 H      0.8543     1.0000     0.1457     0.9945     0.9945     0.0000
  7 H      0.8545     1.0000     0.1455     0.9946     0.9946     0.0000
  8 H      0.8790     1.0000     0.1210     0.9980     0.9980     0.0000

  Mayer bond orders larger than 0.1
B(  0-C ,  1-C ) :   1.4642 B(  0-C ,  4-C ) :   1.3292 B(  0-C ,  5-H ) :   0.9652 
B(  1-C ,  2-S ) :   1.3020 B(  1-C ,  3-C ) :   0.1060 B(  1-C ,  6-H ) :   0.9560 
B(  2-S ,  3-C ) :   1.3018 B(  3-C ,  4-C ) :   1.4645 B(  3-C ,  7-H ) :   0.9560 
B(  4-C ,  8-H ) :   0.9653 

-------
TIMINGS
-------

Total SCF time: 0 days 0 hours 0 min 6 sec 

Total time                  ....       6.211 sec
Sum of individual times     ....       6.149 sec  ( 99.0%)

Fock matrix formation       ....       5.312 sec  ( 85.5%)
  XC integration            ....       1.204 sec  ( 22.7% of F)
    Basis function eval.    ....       0.265 sec  ( 22.0% of XC)
    Density eval.           ....       0.204 sec  ( 17.0% of XC)
    XC-Functional eval.     ....       0.030 sec  (  2.5% of XC)
    XC-Potential eval.      ....       0.622 sec  ( 51.7% of XC)
Diagonalization             ....       0.084 sec  (  1.4%)
Density matrix formation    ....       0.008 sec  (  0.1%)
Population analysis         ....       0.015 sec  (  0.2%)
Initial guess               ....       0.207 sec  (  3.3%)
Orbital Transformation      ....       0.000 sec  (  0.0%)
Orbital Orthonormalization  ....       0.000 sec  (  0.0%)
DIIS solution               ....       0.023 sec  (  0.4%)
SOSCF solution              ....       0.053 sec  (  0.8%)
Grid generation             ....       0.447 sec  (  7.2%)

-------------------------   --------------------
FINAL SINGLE POINT ENERGY      -552.195686559993
-------------------------   --------------------


                            ***************************************
                            *     ORCA property calculations      *
                            ***************************************

                                    ---------------------
                                    Active property flags
                                    ---------------------
   (+) Dipole Moment


------------------------------------------------------------------------------
                       ORCA ELECTRIC PROPERTIES CALCULATION
------------------------------------------------------------------------------

Dipole Moment Calculation                       ... on
Quadrupole Moment Calculation                   ... off
Polarizability Calculation                      ... off
GBWName                                         ... system.gbw
Electron density file                           ... system.scfp.tmp
The origin for moment calculation is the CENTER OF MASS  = (19.723103, 19.481035 19.504696)

-------------
DIPOLE MOMENT
-------------
                                X             Y             Z
Electronic contribution:     -3.60656       0.00517      -0.01228
Nuclear contribution   :      3.71810      -0.00544       0.01248
                        -----------------------------------------
Total Dipole Moment    :      0.11154      -0.00027       0.00020
                        -----------------------------------------
Magnitude (a.u.)       :      0.11154
Magnitude (Debye)      :      0.28351


Timings for individual modules:

Sum of individual times         ...        6.617 sec (=   0.110 min)
GTO integral calculation        ...        0.342 sec (=   0.006 min)   5.2 %
SCF iterations                  ...        6.275 sec (=   0.105 min)  94.8 %
                             ****ORCA TERMINATED NORMALLY****
TOTAL RUN TIME: 0 days 0 hours 0 minutes 6 seconds 836 msec
