ITEM: TIMESTEP
1
ITEM: NUMBER OF ATOMS
16
ITEM: BOX BOUNDS pp pp pp
0 100.000000
0 100.000000
0 100.000000
ITEM: ATOMS id type x y z vx vy vz fx fy fz
1 0 3.571663 -2.912328 0.627991 0.000000 0.000000 0.000000 0.100000 0.100000 0.100000
2 0 2.702771 -1.746477 0.724159 0.000000 0.000000 0.000000 0.100000 0.100000 0.100000
3 0 1.448135 -2.025836 0.308560 0.000000 0.000000 0.000000 0.100000 0.100000 0.100000
4 0 2.946939 -3.992905 0.161081 0.000000 0.000000 0.000000 0.100000 0.100000 0.100000
5 1 4.611604 -2.882320 0.919327 0.000000 0.000000 0.000000 0.100000 0.100000 0.100000
6 2 1.284820 -3.692216 -0.197094 0.000000 0.000000 0.000000 0.100000 0.100000 0.100000
7 1 3.374874 -4.971104 0.004941 0.000000 0.000000 0.000000 0.100000 0.100000 0.100000
8 1 3.082680 -0.806748 1.097073 0.000000 0.000000 0.000000 0.100000 0.100000 0.100000
9 0 0.244597 -1.159273 0.241620 0.000000 0.000000 0.000000 0.100000 0.100000 0.100000
10 2 -0.599083 -0.820914 -1.247944 0.000000 0.000000 0.000000 0.100000 0.100000 0.100000
11 0 -0.362405 -0.567118 1.284770 0.000000 0.000000 0.000000 0.100000 0.100000 0.100000
12 1 -0.017750 -0.642753 2.305544 0.000000 0.000000 0.000000 0.100000 0.100000 0.100000
13 0 -1.542466 0.201364 0.915934 0.000000 0.000000 0.000000 0.100000 0.100000 0.100000
14 0 -1.764805 0.138711 -0.400894 0.000000 0.000000 0.000000 0.100000 0.100000 0.100000
15 1 -2.563883 0.611988 -0.947270 0.000000 0.000000 0.000000 0.100000 0.100000 0.100000
16 1 -2.121735 0.732859 1.656506 0.000000 0.000000 0.000000 0.100000 0.100000 0.100000
