
                                 *****************
                                 * O   R   C   A *
                                 *****************

           --- An Ab Initio, DFT and Semiempirical electronic structure package ---

                  #######################################################
                  #                        -***-                        #
                  #  Department of molecular theory and spectroscopy    #
                  #              Directorship: Frank Neese              #
                  # Max Planck Institute for Chemical Energy Conversion #
                  #                  D-45470 Muelheim/Ruhr              #
                  #                       Germany                       #
                  #                                                     #
                  #                  All rights reserved                #
                  #                        -***-                        #
                  #######################################################


                         Program Version 4.0.1 -  RELEASE  -


 With contributions from (in alphabetic order):
   Daniel Aravena         : Magnetic Properties
   Michael Atanasov       : Ab Initio Ligand Field Theory
   Ute Becker             : Parallelization
   Martin Brehm           : Molecular dynamics
   Dmytro Bykov           : SCF Hessian
   Vijay G. Chilkuri      : MRCI spin determinant printing
   Dipayan Datta          : RHF DLPNO-CCSD density
   Achintya Kumar Dutta   : EOM-CC, STEOM-CC
   Dmitry Ganyushin       : Spin-Orbit,Spin-Spin,Magnetic field MRCI
   Yang Guo               : DLPNO-NEVPT2, CIM, IAO-localization
   Andreas Hansen         : Spin unrestricted coupled pair/coupled cluster methods
   Lee Huntington         : MR-EOM, pCC
   Robert Izsak           : Overlap fitted RIJCOSX, COSX-SCS-MP3, EOM
   Christian Kollmar      : KDIIS, OOCD, Brueckner-CCSD(T), CCSD density
   Simone Kossmann        : Meta GGA functionals, TD-DFT gradient, OOMP2, MP2 Hessian
   Martin Krupicka        : AUTO-CI
   Dagmar Lenk            : GEPOL surface
   Dimitrios Liakos       : Extrapolation schemes; parallel MDCI
   Dimitrios Manganas     : ROCIS; embedding schemes
   Dimitrios Pantazis     : SARC Basis sets
   Taras Petrenko         : DFT Hessian,TD-DFT gradient, ASA, ECA, R-Raman, ABS, FL, XAS/XES, NRVS
   Peter Pinski           : DLPNO-MP2
   Christoph Reimann      : Effective Core Potentials
   Marius Retegan         : Local ZFS, SOC
   Christoph Riplinger    : Optimizer, TS searches, QM/MM, DLPNO-CCSD(T), (RO)-DLPNO pert. Triples
   Tobias Risthaus        : Range-separated hybrids, TD-DFT gradient, RPA, STAB
   Michael Roemelt        : Restricted open shell CIS
   Masaaki Saitow         : Open-shell DLPNO
   Barbara Sandhoefer     : DKH picture change effects
   Kantharuban Sivalingam : CASSCF convergence, NEVPT2, FIC-MRCI
   Georgi Stoychev        : AutoAux
   Boris Wezisla          : Elementary symmetry handling
   Frank Wennmohs         : Technical directorship


 We gratefully acknowledge several colleagues who have allowed us to
 interface, adapt or use parts of their codes:
   Stefan Grimme, W. Hujo, H. Kruse,             : VdW corrections, initial TS optimization,
                  C. Bannwarth                     DFT functionals, gCP, sTDA/sTD-DF
   Ed Valeev                                     : LibInt (2-el integral package), F12 methods
   Garnet Chan, S. Sharma, J. Yang, R. Olivares  : DMRG
   Ulf Ekstrom                                   : XCFun DFT Library
   Mihaly Kallay                                 : mrcc  (arbitrary order and MRCC methods)
   Andreas Klamt, Michael Diedenhofen            : otool_cosmo (COSMO solvation model)
   Jiri Pittner, Ondrej Demel                    : Mk-CCSD
   Frank Weinhold                                : gennbo (NPA and NBO analysis)
   Christopher J. Cramer and Donald G. Truhlar   : smd solvation model


 Your calculation uses the libint2 library for the computation of 2-el integrals
 For citations please refer to: http://libint.valeyev.net

 This ORCA versions uses:
   CBLAS   interface :  Fast vector & matrix operations
   LAPACKE interface :  Fast linear algebra routines
   SCALAPACK package :  Parallel linear algebra routines


Your calculation utilizes the basis: cc-pVTZ 
       H, B-Ne : Obtained from the ccRepo (grant-hill.group.shef.ac.uk/ccrepo) Feb. 2017
                 T. H. Dunning, Jr., J. Chem. Phys. 90, 1007 (1989)
            He : Obtained from the ccRepo (grant-hill.group.shef.ac.uk/ccrepo) Feb. 2017
                 D. E. Woon, T. H. Dunning, Jr., J. Chem. Phys. 100, 2975 (1994)
  Li-Be, Na-Mg : Obtained from the ccRepo (grant-hill.group.shef.ac.uk/ccrepo) Feb. 2017
                 B. P. Prascher, D. E. Woon, K. A. Peterson, T. H. Dunning, Jr., A. K. Wilson, Theor. Chem. Acc. 128, 69 (2011)
         Al-Ar : Obtained from the ccRepo (grant-hill.group.shef.ac.uk/ccrepo) Feb. 2017
                 D. E. Woon, T. H. Dunning, Jr., J. Chem. Phys. 98, 1358 (1993)
            Ca : Obtained from the Peterson Research Group Website (tyr0.chem.wsu.edu/~kipeters) Feb. 2017
                 J. Koput, K. A. Peterson, J. Phys. Chem. 106, 9595 (2002)
         Sc-Zn : Obtained from the ccRepo (grant-hill.group.shef.ac.uk/ccrepo) Feb. 2017
                 N. B. Balabanov, K. A. Peterson, J. Chem. Phys. 123, 064107 (2005)
                 N. B. Balabanov, K. A. Peterson, J. Chem. Phys. 125, 074110 (2006)
         Ga-Kr : Obtained from the ccRepo (grant-hill.group.shef.ac.uk/ccrepo) Feb. 2017
                 A. K. Wilson, D. E. Woon, K. A. Peterson, T. H. Dunning, Jr., J. Chem. Phys. 110, 7667 (1999)
             Y : Obtained from the ccRepo (grant-hill.group.shef.ac.uk/ccrepo) Feb. 2017
                 K. A. Peterson, D. Figgen, M. Dolg, H. Stoll, J. Chem. Phys. 126, 124101 (2007)
        Ag, Au : Obtained from the Peterson Research Group Website (tyr0.chem.wsu.edu/~kipeters) Feb. 2017
                 K. A. Peterson, C. Puzzarini, Theor. Chem. Acc. 114, 283 (2005)

Your calculation utilizes the auxiliary basis: def2/J
   F. Weigend, Phys. Chem. Chem. Phys. 8, 1057 (2006).

================================================================================
                                        WARNINGS
                       Please study these warnings very carefully!
================================================================================

Warning: TCutStore was < 0. Adjusted to Thresh (uncritical)

WARNING: your system is open-shell and RHF/RKS was chosen
  ===> : WILL SWITCH to UHF/UKS


WARNING: Geometry Optimization
  ===> : Switching off AutoStart
         For restart on a previous wavefunction, please use MOREAD

INFO   : the flag for use of LIBINT has been found!

================================================================================
                                       INPUT FILE
================================================================================
NAME = system.inp
|  1> * xyz  -1 2
|  2>   C      11.749001     10.834662      9.855707
|  3>   C      10.480477     11.213691      9.514388
|  4>   S       9.340647     10.309169     10.317908
|  5>   C      10.473986      9.403360     11.129074
|  6>   C      11.745299      9.780424     10.796077
|  7>   H      12.641061     11.290838      9.450909
|  8>   H      10.194209     11.988999      8.821817
|  9>   H      10.181502      8.628585     11.819672
| 10>   H      12.634118      9.322672     11.206148
| 11> * 
| 12> 
| 13> %pal
| 14>  nprocs 4
| 15> end
| 16> 
| 17>  
| 18> 
| 19> ! OPT DFT  PBE0 RIJK cc-pVTZ
| 20> 
| 21> 
| 22>                          ****END OF INPUT****
================================================================================

                       *****************************
                       * Geometry Optimization Run *
                       *****************************

Geometry optimization settings:
Update method            Update   .... BFGS
Choice of coordinates    CoordSys .... Redundant Internals
Initial Hessian          InHess   .... Almoef's Model

Convergence Tolerances:
Energy Change            TolE     ....  5.0000e-06 Eh
Max. Gradient            TolMAXG  ....  3.0000e-04 Eh/bohr
RMS Gradient             TolRMSG  ....  1.0000e-04 Eh/bohr
Max. Displacement        TolMAXD  ....  4.0000e-03 bohr
RMS Displacement         TolRMSD  ....  2.0000e-03 bohr

------------------------------------------------------------------------------
                        ORCA OPTIMIZATION COORDINATE SETUP
------------------------------------------------------------------------------

The optimization will be done in new redundant internal coordinates
Making redundant internal coordinates   ...  (new redundants) done
Evaluating the initial hessian          ...  (Almloef) done
Evaluating the coordinates              ...  done
Calculating the B-matrix                .... done
Calculating the G-matrix                .... done
Diagonalizing the G-matrix              .... done
The first mode is                       ....   17
The number of degrees of freedom        ....   21

    -----------------------------------------------------------------
                    Redundant Internal Coordinates


    -----------------------------------------------------------------
         Definition                    Initial Value    Approx d2E/dq
    -----------------------------------------------------------------
      1. B(C   1,C   0)                  1.3672         0.679311   
      2. B(S   2,C   1)                  1.6622         0.619693   
      3. B(C   3,S   2)                  1.6622         0.619748   
      4. B(C   4,C   3)                  1.3672         0.679323   
      5. B(C   4,C   0)                  1.4127         0.574803   
      6. B(H   5,C   0)                  1.0806         0.372732   
      7. B(H   6,C   1)                  1.0783         0.375931   
      8. B(H   7,C   3)                  1.0783         0.375904   
      9. B(H   8,C   4)                  1.0806         0.372753   
     10. A(C   1,C   0,C   4)          111.7542         0.435292   
     11. A(C   1,C   0,H   5)          123.7362         0.360533   
     12. A(C   4,C   0,H   5)          124.5096         0.350458   
     13. A(S   2,C   1,H   6)          121.3117         0.374168   
     14. A(C   0,C   1,S   2)          111.3883         0.465964   
     15. A(C   0,C   1,H   6)          127.3000         0.361059   
     16. A(C   1,S   2,C   3)           93.7207         0.484136   
     17. A(S   2,C   3,H   7)          121.2750         0.374169   
     18. A(S   2,C   3,C   4)          111.3984         0.465973   
     19. A(C   4,C   3,H   7)          127.3266         0.361056   
     20. A(C   3,C   4,H   8)          123.7501         0.360538   
     21. A(C   0,C   4,H   8)          124.5115         0.350462   
     22. A(C   0,C   4,C   3)          111.7384         0.435293   
     23. D(S   2,C   1,C   0,C   4)     -0.0115         0.032342   
     24. D(H   6,C   1,C   0,H   5)      0.0059         0.032342   
     25. D(H   6,C   1,C   0,C   4)   -179.9866         0.032342   
     26. D(S   2,C   1,C   0,H   5)    179.9810         0.032342   
     27. D(C   3,S   2,C   1,H   6)    179.9895         0.007328   
     28. D(C   3,S   2,C   1,C   0)      0.0127         0.007328   
     29. D(C   4,C   3,S   2,C   1)     -0.0105         0.007329   
     30. D(H   7,C   3,S   2,C   1)    179.9823         0.007329   
     31. D(C   0,C   4,C   3,H   7)   -179.9866         0.032343   
     32. D(C   0,C   4,C   3,S   2)      0.0056         0.032343   
     33. D(H   8,C   4,C   0,H   5)     -0.0166         0.022681   
     34. D(H   8,C   4,C   0,C   1)    179.9758         0.022681   
     35. D(C   3,C   4,C   0,H   5)   -179.9887         0.022681   
     36. D(H   8,C   4,C   3,S   2)   -179.9667         0.032343   
     37. D(C   3,C   4,C   0,C   1)      0.0037         0.022681   
     38. D(H   8,C   4,C   3,H   7)      0.0411         0.032343   
    -----------------------------------------------------------------

Number of atoms                         .... 9
Number of degrees of freedom            .... 38

         *************************************************************
         *                GEOMETRY OPTIMIZATION CYCLE   1            *
         *************************************************************
---------------------------------
CARTESIAN COORDINATES (ANGSTROEM)
---------------------------------
  C     11.749001   10.834662    9.855707
  C     10.480477   11.213691    9.514388
  S      9.340647   10.309169   10.317908
  C     10.473986    9.403360   11.129074
  C     11.745299    9.780424   10.796077
  H     12.641061   11.290838    9.450909
  H     10.194209   11.988999    8.821817
  H     10.181502    8.628585   11.819672
  H     12.634118    9.322672   11.206148

----------------------------
CARTESIAN COORDINATES (A.U.)
----------------------------
  NO LB      ZA    FRAG     MASS         X           Y           Z
   0 C     6.0000    0    12.011   22.202394   20.474544   18.624587
   1 C     6.0000    0    12.011   19.805231   21.190805   17.979588
   2 S    16.0000    0    32.060   17.651265   19.481506   19.498020
   3 C     6.0000    0    12.011   19.792965   17.769775   21.030902
   4 C     6.0000    0    12.011   22.195398   18.482323   20.401629
   5 H     1.0000    0     1.008   23.888143   21.336592   17.859630
   6 H     1.0000    0     1.008   19.264263   22.655925   16.670818
   7 H     1.0000    0     1.008   19.240250   16.305663   22.335943
   8 H     1.0000    0     1.008   23.875023   17.617297   21.176551

--------------------------------
INTERNAL COORDINATES (ANGSTROEM)
--------------------------------
 C      0   0   0     0.000000000000     0.00000000     0.00000000
 C      1   0   0     1.367228869348     0.00000000     0.00000000
 S      2   1   0     1.662232495105   111.38827447     0.00000000
 C      3   2   1     1.662208624980    93.72072202     0.00000000
 C      4   3   2     1.367223831739   111.39842166     0.00000000
 H      1   2   3     1.080615106030   123.73620081   179.98104616
 H      2   1   3     1.078288668553   127.30003635   180.02486511
 H      4   3   2     1.078308299368   121.27501432   179.98226917
 H      5   4   3     1.080599062236   123.75008972   180.03329880

---------------------------
INTERNAL COORDINATES (A.U.)
---------------------------
 C      0   0   0     0.000000000000     0.00000000     0.00000000
 C      1   0   0     2.583688125458     0.00000000     0.00000000
 S      2   1   0     3.141164186654   111.38827447     0.00000000
 C      3   2   1     3.141119078654    93.72072202     0.00000000
 C      4   3   2     2.583678605756   111.39842166     0.00000000
 H      1   2   3     2.042066606575   123.73620081   179.98104616
 H      2   1   3     2.037670276875   127.30003635   180.02486511
 H      4   3   2     2.037707373739   121.27501432   179.98226917
 H      5   4   3     2.042036288199   123.75008972   180.03329880

---------------------
BASIS SET INFORMATION
---------------------
There are 3 groups of distinct atoms

 Group   1 Type C   : 18s5p2d1f contracted to 4s3p2d1f pattern {8811/311/11/1}
 Group   2 Type S   : 41s16p2d1f contracted to 5s4p2d1f pattern {13131311/7711/11/1}
 Group   3 Type H   : 5s2p1d contracted to 3s2p1d pattern {311/11/1}

Atom   0C    basis set group =>   1
Atom   1C    basis set group =>   1
Atom   2S    basis set group =>   2
Atom   3C    basis set group =>   1
Atom   4C    basis set group =>   1
Atom   5H    basis set group =>   3
Atom   6H    basis set group =>   3
Atom   7H    basis set group =>   3
Atom   8H    basis set group =>   3
-------------------------------
AUXILIARY BASIS SET INFORMATION
-------------------------------
There are 3 groups of distinct atoms

 Group   1 Type C   : 12s5p4d2f1g contracted to 6s4p3d1f1g pattern {711111/2111/211/2/1}
 Group   2 Type S   : 14s5p5d2f1g contracted to 8s4p3d1f1g pattern {71111111/2111/311/2/1}
 Group   3 Type H   : 5s2p1d contracted to 3s1p1d pattern {311/2/1}

Atom   0C    basis set group =>   1
Atom   1C    basis set group =>   1
Atom   2S    basis set group =>   2
Atom   3C    basis set group =>   1
Atom   4C    basis set group =>   1
Atom   5H    basis set group =>   3
Atom   6H    basis set group =>   3
Atom   7H    basis set group =>   3
Atom   8H    basis set group =>   3


           ************************************************************
           *        Program running with 4 parallel MPI-processes     *
           *              working on a common directory               *
           ************************************************************
------------------------------------------------------------------------------
                           ORCA GTO INTEGRAL CALCULATION
                           -- RI-GTO INTEGRALS CHOSEN --
------------------------------------------------------------------------------

                         BASIS SET STATISTICS AND STARTUP INFO

Gaussian basis set:
 # of primitive gaussian shells          ...  196
 # of primitive gaussian functions       ...  370
 # of contracted shells                  ...   76
 # of contracted basis functions         ...  210
 Highest angular momentum                ...    3
 Maximum contraction depth               ...   13
Auxiliary gaussian basis set:
 # of primitive gaussian shells          ...  155
 # of primitive gaussian functions       ...  421
 # of contracted shells                  ...   97
 # of contracted aux-basis functions     ...  291
 Highest angular momentum                ...    4
 Maximum contraction depth               ...    7
Ratio of auxiliary to basis functions    ...  1.39
Integral package used                  ... LIBINT
 One Electron integrals                  ... done
 Ordering auxiliary basis shells         ... done
 Integral threshhold             Thresh  ...  2.500e-11
 Primitive cut-off               TCut    ...  2.500e-12
 Pre-screening matrix                    ... done
 Shell pair data                         ... 
 Ordering of the shell pairs             ... done (   0.000 sec) 2899 of 2926 pairs
 Determination of significant pairs      ... done (   0.000 sec)
 Creation of shell pair data             ... done (   0.001 sec)
 Storage of shell pair data              ... done (   0.001 sec)
 Shell pair data done in (   0.002 sec)
 Computing two index integrals           ... done
 Cholesky decomposition of the V-matrix  ... done


Timings:
 Total evaluation time                   ...   0.277 sec (  0.005 min)
 One electron matrix time                ...   0.032 sec (  0.001 min) = 11.7%
 Schwartz matrix evaluation time         ...   0.223 sec (  0.004 min) = 80.4%
 Two index repulsion integral time       ...   0.001 sec (  0.000 min) =  0.5%
 Cholesky decomposition of V             ...   0.001 sec (  0.000 min) =  0.4%
 Three index repulsion integral time     ...   0.000 sec (  0.000 min) =  0.0%



           ************************************************************
           *        Program running with 4 parallel MPI-processes     *
           *              working on a common directory               *
           ************************************************************
-------------------------------------------------------------------------------
                                 ORCA SCF
-------------------------------------------------------------------------------

------------
SCF SETTINGS
------------
Hamiltonian:
 Density Functional     Method          .... DFT(GTOs)
 Exchange Functional    Exchange        .... PBE
   PBE kappa parameter   XKappa         ....  0.804000
   PBE mue parameter    XMuePBE         ....  0.219520
 Correlation Functional Correlation     .... PBE
   PBE beta parameter  CBetaPBE         ....  0.066725
 LDA part of GGA corr.  LDAOpt          .... PW91-LDA
 Gradients option       PostSCFGGA      .... off
 Hybrid DFT is turned on
   Fraction HF Exchange ScalHFX         ....  0.250000
   Scaling of DF-GGA-X  ScalDFX         ....  0.750000
   Scaling of DF-GGA-C  ScalDFC         ....  1.000000
   Scaling of DF-LDA-C  ScalLDAC        ....  1.000000
   Perturbative correction              ....  0.000000
   NL short-range parameter             ....  6.900000
 RI-approximation to the Coulomb term is turned on
   Number of auxiliary basis functions  .... 291
   RI-JK (J+K treated both via RI)      .... on


General Settings:
 Integral files         IntName         .... system
 Hartree-Fock type      HFTyp           .... UHF
 Total Charge           Charge          ....   -1
 Multiplicity           Mult            ....    2
 Number of Electrons    NEL             ....   45
 Basis Dimension        Dim             ....  210
 Nuclear Repulsion      ENuc            ....    206.2683590002 Eh

Convergence Acceleration:
 DIIS                   CNVDIIS         .... on
   Start iteration      DIISMaxIt       ....    12
   Startup error        DIISStart       ....  0.200000
   # of expansion vecs  DIISMaxEq       ....     5
   Bias factor          DIISBfac        ....   1.050
   Max. coefficient     DIISMaxC        ....  10.000
 Newton-Raphson         CNVNR           .... off
 SOSCF                  CNVSOSCF        .... off
 Level Shifting         CNVShift        .... on
   Level shift para.    LevelShift      ....    0.2500
   Turn off err/grad.   ShiftErr        ....    0.0010
 Zerner damping         CNVZerner       .... off
 Static damping         CNVDamp         .... on
   Fraction old density DampFac         ....    0.7000
   Max. Damping (<1)    DampMax         ....    0.9800
   Min. Damping (>=0)   DampMin         ....    0.0000
   Turn off err/grad.   DampErr         ....    0.1000
 Fernandez-Rico         CNVRico         .... off

SCF Procedure:
 Maximum # iterations   MaxIter         ....   125
 SCF integral mode      SCFMode         .... Direct
   Integral package                     .... LIBINT
 Reset frequeny         DirectResetFreq ....    20
 Integral Threshold     Thresh          ....  2.500e-11 Eh
 Primitive CutOff       TCut            ....  2.500e-12 Eh

Convergence Tolerance:
 Convergence Check Mode ConvCheckMode   .... Total+1el-Energy
 Convergence forced     ConvForced      .... 0
 Energy Change          TolE            ....  1.000e-08 Eh
 1-El. energy change                    ....  1.000e-05 Eh
 DIIS Error             TolErr          ....  5.000e-07


Diagonalization of the overlap matrix:
Smallest eigenvalue                        ... 1.612e-04
Time for diagonalization                   ...    0.006 sec
Threshold for overlap eigenvalues          ... 1.000e-08
Number of eigenvalues below threshold      ... 0
Time for construction of square roots      ...    0.002 sec
Total time needed                          ...    0.009 sec

-------------------
DFT GRID GENERATION
-------------------

General Integration Accuracy     IntAcc      ...  4.340
Radial Grid Type                 RadialGrid  ... Gauss-Chebyshev
Angular Grid (max. acc.)         AngularGrid ... Lebedev-110
Angular grid pruning method      GridPruning ... 3 (G Style)
Weight generation scheme         WeightScheme... Becke
Basis function cutoff            BFCut       ...    1.0000e-11
Integration weight cutoff        WCut        ...    1.0000e-14
Grids for H and He will be reduced by one unit

# of grid points (after initial pruning)     ...  11606 (   0.0 sec)
# of grid points (after weights+screening)   ...  11089 (   0.0 sec)
nearest neighbour list constructed           ...    0.0 sec
Grid point re-assignment to atoms done       ...    0.0 sec
Grid point division into batches done        ...    0.0 sec
Reduced shell lists constructed in    0.0 sec

Total number of grid points                  ...    11089
Total number of batches                      ...      177
Average number of points per batch           ...       62
Average number of grid points per atom       ...     1232
Average number of shells per batch           ...    67.00 (88.16%)
Average number of basis functions per batch  ...   184.17 (87.70%)
Average number of large shells per batch     ...    60.24 (89.91%)
Average number of large basis fcns per batch ...   165.59 (89.91%)
Average number of aux-shells per batch       ...    67.00 (69.07%)
Average number of aux functions per batch    ...   184.17 (63.29%)
Maximum spatial batch extension              ...  17.90, 15.68, 15.07 au
Average spatial batch extension              ...   0.79,  1.01,  1.02 au

Time for grid setup =    0.066 sec

------------------------------
INITIAL GUESS: MODEL POTENTIAL
------------------------------
Loading Hartree-Fock densities                     ... done
Calculating cut-offs                               ... done
Setting up the integral package                    ... done
Initializing the effective Hamiltonian             ... done
Starting the Coulomb interaction                   ... done (   0.0 sec)
Reading the grid                                   ... done
Mapping shells                                     ... done
Starting the XC term evaluation                    ... done (   0.1 sec)
  promolecular density results
     # of electrons  =     43.994876471
     EX              =    -46.568433537
     EC              =     -1.545993248
     EX+EC           =    -48.114426785
Transforming the Hamiltonian                       ... done (   0.0 sec)
Diagonalizing the Hamiltonian                      ... done (   0.0 sec)
Back transforming the eigenvectors                 ... done (   0.0 sec)
Now organizing SCF variables                       ... done
                      ------------------
                      INITIAL GUESS DONE (   0.2 sec)
                      ------------------
--------------
SCF ITERATIONS
--------------
ITER       Energy         Delta-E        Max-DP      RMS-DP      [F,P]     Damp
  0   -551.8400414587   0.000000000000 0.04565228  0.00090657  0.1946385 0.7000
  1   -551.8905308528  -0.050489394058 0.04531299  0.00089565  0.1209920 0.7000
                               ***Turning on DIIS***
  2   -551.9599192304  -0.069388377602 0.08312691  0.00167514  0.0414771 0.0000
  3   -552.0805492799  -0.120630049536 0.02963823  0.00059379  0.0821930 0.0000
  4   -552.1293585554  -0.048809275446 0.01568481  0.00031535  0.0312829 0.0000
  5   -552.1358300363  -0.006471480896 0.00734405  0.00015297  0.0113278 0.0000
  6   -552.1368919347  -0.001061898477 0.00337408  0.00007259  0.0040016 0.0000
  7   -552.1370423705  -0.000150435780 0.00130257  0.00003105  0.0011210 0.0000
  8   -552.1370664244  -0.000024053875 0.00094128  0.00002227  0.0003590 0.0000
  9   -552.1370747156  -0.000008291200 0.00021680  0.00000506  0.0001265 0.0000
 10   -552.1370764407  -0.000001725150 0.00011179  0.00000260  0.0000358 0.0000
 11   -552.1370768698  -0.000000429028 0.00006443  0.00000141  0.0000301 0.0000
 12   -552.1370769758  -0.000000106017 0.00002222  0.00000053  0.0000060 0.0000
 13   -552.1370769938  -0.000000018054 0.00001176  0.00000029  0.0000025 0.0000
                 **** Energy Check signals convergence ****

               *****************************************************
               *                     SUCCESS                       *
               *           SCF CONVERGED AFTER  14 CYCLES          *
               *****************************************************

Setting up the final grid:

General Integration Accuracy     IntAcc      ...  4.670
Radial Grid Type                 RadialGrid  ... Gauss-Chebyshev
Angular Grid (max. acc.)         AngularGrid ... Lebedev-302
Angular grid pruning method      GridPruning ... 3 (G Style)
Weight generation scheme         WeightScheme... Becke
Basis function cutoff            BFCut       ...    1.0000e-11
Integration weight cutoff        WCut        ...    1.0000e-14
Grids for H and He will be reduced by one unit

# of grid points (after initial pruning)     ...  45270 (   0.0 sec)
# of grid points (after weights+screening)   ...  42839 (   0.0 sec)
nearest neighbour list constructed           ...    0.0 sec
Grid point re-assignment to atoms done       ...    0.0 sec
Grid point division into batches done        ...    0.1 sec
Reduced shell lists constructed in    0.2 sec

Total number of grid points                  ...    42839
Total number of batches                      ...      676
Average number of points per batch           ...       63
Average number of grid points per atom       ...     4760
Average number of shells per batch           ...    64.99 (85.52%)
Average number of basis functions per batch  ...   178.05 (84.79%)
Average number of large shells per batch     ...    55.28 (85.05%)
Average number of large basis fcns per batch ...   151.77 (85.24%)
Maximum spatial batch extension              ...  15.37, 16.94, 17.06 au
Average spatial batch extension              ...   0.51,  0.57,  0.57 au

Final grid set up in    0.2 sec
Final integration                            ... done (   0.4 sec)
Change in XC energy                          ...    -0.000019163
Integrated number of electrons               ...    44.999994363
Previous integrated no of electrons          ...    45.001169143

----------------
TOTAL SCF ENERGY
----------------

Total Energy       :         -552.13709616 Eh          -15024.41421 eV

Components:
Nuclear Repulsion  :          206.26835900 Eh            5612.84740 eV
Electronic Energy  :         -758.40545516 Eh          -20637.26161 eV
One Electron Energy:        -1176.23020288 Eh          -32006.85102 eV
Two Electron Energy:          417.82474771 Eh           11369.58940 eV

Virial components:
Potential Energy   :        -1102.70805819 Eh          -30006.21175 eV
Kinetic Energy     :          550.57096203 Eh           14981.79754 eV
Virial Ratio       :            2.00284456


DFT components:
N(Alpha)           :       22.999998038430 electrons
N(Beta)            :       21.999996324470 electrons
N(Total)           :       44.999994362900 electrons
E(X)               :      -35.418623821254 Eh       
E(C)               :       -1.585384850756 Eh       
E(XC)              :      -37.004008672010 Eh       

---------------
SCF CONVERGENCE
---------------

  Last Energy change         ...   -3.9063e-09  Tolerance :   1.0000e-08
  Last MAX-Density change    ...    3.9972e-06  Tolerance :   1.0000e-07
  Last RMS-Density change    ...    9.5467e-08  Tolerance :   5.0000e-09
  Last DIIS Error            ...    2.2784e-06  Tolerance :   5.0000e-07

             **** THE GBW FILE WAS UPDATED (system.gbw) ****
             **** DENSITY FILE WAS UPDATED (system.scfp.tmp) ****
             **** ENERGY FILE WAS UPDATED (system.en.tmp) ****
----------------------
UHF SPIN CONTAMINATION
----------------------

Warning: in a DFT calculation there is little theoretical justification to 
         calculate <S**2> as in Hartree-Fock theory. We will do it anyways
         but you should keep in mind that the values have only limited relevance

Expectation value of <S**2>     :     0.761341
Ideal value S*(S+1) for S=0.5   :     0.750000
Deviation                       :     0.011341

----------------
ORBITAL ENERGIES
----------------
                 SPIN UP ORBITALS
  NO   OCC          E(Eh)            E(eV) 
   0   1.0000     -88.846258     -2417.6296 
   1   1.0000     -10.003955      -272.2214 
   2   1.0000     -10.003420      -272.2069 
   3   1.0000      -9.999782      -272.1079 
   4   1.0000      -9.999777      -272.1078 
   5   1.0000      -7.728117      -210.2928 
   6   1.0000      -5.646366      -153.6454 
   7   1.0000      -5.642347      -153.5361 
   8   1.0000      -5.630333      -153.2092 
   9   1.0000      -0.692841       -18.8532 
  10   1.0000      -0.536131       -14.5889 
  11   1.0000      -0.525428       -14.2976 
  12   1.0000      -0.358844        -9.7646 
  13   1.0000      -0.355690        -9.6788 
  14   1.0000      -0.318179        -8.6581 
  15   1.0000      -0.204191        -5.5563 
  16   1.0000      -0.190007        -5.1704 
  17   1.0000      -0.185042        -5.0353 
  18   1.0000      -0.183634        -4.9969 
  19   1.0000      -0.135350        -3.6831 
  20   1.0000      -0.055290        -1.5045 
  21   1.0000      -0.045832        -1.2471 
  22   1.0000       0.137105         3.7308 
  23   0.0000       0.222228         6.0471 
  24   0.0000       0.238155         6.4805 
  25   0.0000       0.256128         6.9696 
  26   0.0000       0.257964         7.0196 
  27   0.0000       0.261360         7.1120 
  28   0.0000       0.295822         8.0497 
  29   0.0000       0.304053         8.2737 
  30   0.0000       0.396335        10.7848 
  31   0.0000       0.410179        11.1615 
  32   0.0000       0.432990        11.7823 
  33   0.0000       0.463243        12.6055 
  34   0.0000       0.463908        12.6236 
  35   0.0000       0.495398        13.4805 
  36   0.0000       0.514592        14.0028 
  37   0.0000       0.523634        14.2488 
  38   0.0000       0.540316        14.7028 
  39   0.0000       0.570291        15.5184 
  40   0.0000       0.572757        15.5855 
  41   0.0000       0.586404        15.9569 
  42   0.0000       0.587106        15.9760 
  43   0.0000       0.595858        16.2141 
  44   0.0000       0.607411        16.5285 
  45   0.0000       0.620851        16.8942 
  46   0.0000       0.622424        16.9370 
  47   0.0000       0.641625        17.4595 
  48   0.0000       0.642855        17.4930 
  49   0.0000       0.661887        18.0109 
  50   0.0000       0.673683        18.3318 
  51   0.0000       0.701305        19.0835 
  52   0.0000       0.713417        19.4131 
  53   0.0000       0.781154        21.2563 
  54   0.0000       0.822721        22.3874 
  55   0.0000       0.823119        22.3982 
  56   0.0000       0.868015        23.6199 
  57   0.0000       0.898457        24.4483 
  58   0.0000       0.904951        24.6250 
  59   0.0000       0.907437        24.6926 
  60   0.0000       0.919527        25.0216 
  61   0.0000       0.989284        26.9198 
  62   0.0000       1.009272        27.4637 
  63   0.0000       1.038844        28.2684 
  64   0.0000       1.082864        29.4662 
  65   0.0000       1.103466        30.0268 
  66   0.0000       1.128014        30.6948 
  67   0.0000       1.157843        31.5065 
  68   0.0000       1.170166        31.8418 
  69   0.0000       1.195862        32.5411 
  70   0.0000       1.205394        32.8004 
  71   0.0000       1.251599        34.0578 
  72   0.0000       1.259407        34.2702 
  73   0.0000       1.267698        34.4958 
  74   0.0000       1.317582        35.8532 
  75   0.0000       1.344309        36.5805 
  76   0.0000       1.397803        38.0362 
  77   0.0000       1.413525        38.4640 
  78   0.0000       1.434821        39.0435 
  79   0.0000       1.449019        39.4298 
  80   0.0000       1.472043        40.0563 
  81   0.0000       1.476128        40.1675 
  82   0.0000       1.511914        41.1413 
  83   0.0000       1.520280        41.3689 
  84   0.0000       1.545599        42.0579 
  85   0.0000       1.595254        43.4091 
  86   0.0000       1.613189        43.8971 
  87   0.0000       1.620277        44.0900 
  88   0.0000       1.681123        45.7457 
  89   0.0000       1.706397        46.4334 
  90   0.0000       1.765943        48.0538 
  91   0.0000       1.805722        49.1362 
  92   0.0000       1.809018        49.2259 
  93   0.0000       1.823983        49.6331 
  94   0.0000       1.849599        50.3301 
  95   0.0000       1.908519        51.9334 
  96   0.0000       1.980687        53.8972 
  97   0.0000       2.050295        55.7914 
  98   0.0000       2.076113        56.4939 
  99   0.0000       2.104545        57.2676 
 100   0.0000       2.160925        58.8018 
 101   0.0000       2.168780        59.0155 
 102   0.0000       2.186478        59.4971 
 103   0.0000       2.187325        59.5201 
 104   0.0000       2.196572        59.7718 
 105   0.0000       2.266361        61.6708 
 106   0.0000       2.336396        63.5766 
 107   0.0000       2.367125        64.4127 
 108   0.0000       2.434457        66.2449 
 109   0.0000       2.468127        67.1612 
 110   0.0000       2.486710        67.6668 
 111   0.0000       2.487463        67.6873 
 112   0.0000       2.521370        68.6100 
 113   0.0000       2.623916        71.4004 
 114   0.0000       2.663113        72.4670 
 115   0.0000       2.677525        72.8592 
 116   0.0000       2.682604        72.9974 
 117   0.0000       2.703659        73.5703 
 118   0.0000       2.779794        75.6420 
 119   0.0000       2.805274        76.3354 
 120   0.0000       2.867544        78.0298 
 121   0.0000       2.880575        78.3844 
 122   0.0000       2.902981        78.9941 
 123   0.0000       2.940887        80.0256 
 124   0.0000       2.964344        80.6639 
 125   0.0000       3.030997        82.4776 
 126   0.0000       3.037037        82.6420 
 127   0.0000       3.055564        83.1461 
 128   0.0000       3.097393        84.2843 
 129   0.0000       3.133919        85.2783 
 130   0.0000       3.164949        86.1226 
 131   0.0000       3.171235        86.2937 
 132   0.0000       3.186808        86.7175 
 133   0.0000       3.206375        87.2499 
 134   0.0000       3.221801        87.6697 
 135   0.0000       3.250801        88.4588 
 136   0.0000       3.255057        88.5746 
 137   0.0000       3.319961        90.3407 
 138   0.0000       3.330561        90.6292 
 139   0.0000       3.336898        90.8016 
 140   0.0000       3.361025        91.4581 
 141   0.0000       3.365772        91.5873 
 142   0.0000       3.397668        92.4552 
 143   0.0000       3.416046        92.9553 
 144   0.0000       3.445164        93.7477 
 145   0.0000       3.445287        93.7510 
 146   0.0000       3.476458        94.5992 
 147   0.0000       3.483131        94.7808 
 148   0.0000       3.556881        96.7877 
 149   0.0000       3.582808        97.4932 
 150   0.0000       3.590381        97.6992 
 151   0.0000       3.620997        98.5323 
 152   0.0000       3.661363        99.6308 
 153   0.0000       3.693076       100.4937 
 154   0.0000       3.702571       100.7521 
 155   0.0000       3.718792       101.1935 
 156   0.0000       3.786882       103.0463 
 157   0.0000       3.829582       104.2082 
 158   0.0000       3.846166       104.6595 
 159   0.0000       3.889241       105.8316 
 160   0.0000       3.894423       105.9726 
 161   0.0000       3.910076       106.3986 
 162   0.0000       3.962784       107.8328 
 163   0.0000       4.013063       109.2010 
 164   0.0000       4.014613       109.2432 
 165   0.0000       4.042174       109.9931 
 166   0.0000       4.063089       110.5623 
 167   0.0000       4.086578       111.2014 
 168   0.0000       4.140182       112.6601 
 169   0.0000       4.169718       113.4638 
 170   0.0000       4.169875       113.4681 
 171   0.0000       4.176323       113.6435 
 172   0.0000       4.260246       115.9272 
 173   0.0000       4.290899       116.7613 
 174   0.0000       4.309402       117.2648 
 175   0.0000       4.405150       119.8702 
 176   0.0000       4.416258       120.1725 
 177   0.0000       4.472655       121.7071 
 178   0.0000       4.512648       122.7954 
 179   0.0000       4.556797       123.9968 
 180   0.0000       4.571923       124.4084 
 181   0.0000       4.590640       124.9177 
 182   0.0000       4.607904       125.3875 
 183   0.0000       4.684617       127.4749 
 184   0.0000       4.733583       128.8073 
 185   0.0000       4.794941       130.4770 
 186   0.0000       4.799640       130.6049 
 187   0.0000       4.874995       132.6554 
 188   0.0000       4.904100       133.4473 
 189   0.0000       5.040490       137.1587 
 190   0.0000       5.047545       137.3507 
 191   0.0000       5.154603       140.2639 
 192   0.0000       5.198230       141.4510 
 193   0.0000       5.223026       142.1258 
 194   0.0000       5.242283       142.6498 
 195   0.0000       5.260949       143.1577 
 196   0.0000       5.365646       146.0067 
 197   0.0000       5.509963       149.9337 
 198   0.0000       5.562861       151.3731 
 199   0.0000       5.800337       157.8352 
 200   0.0000       5.853673       159.2865 
 201   0.0000       5.957978       162.1248 
 202   0.0000       6.053874       164.7343 
 203   0.0000       6.145676       167.2323 
 204   0.0000       6.412443       174.4915 
 205   0.0000       6.597357       179.5232 
 206   0.0000       9.857705       268.2418 
 207   0.0000      11.697069       318.2934 
 208   0.0000      13.126123       357.1800 
 209   0.0000      13.967703       380.0805 

                 SPIN DOWN ORBITALS
  NO   OCC          E(Eh)            E(eV) 
   0   1.0000     -88.845460     -2417.6079 
   1   1.0000     -10.003615      -272.2122 
   2   1.0000     -10.003092      -272.1980 
   3   1.0000      -9.993683      -271.9419 
   4   1.0000      -9.993664      -271.9414 
   5   1.0000      -7.727293      -210.2703 
   6   1.0000      -5.646183      -153.6405 
   7   1.0000      -5.642135      -153.5303 
   8   1.0000      -5.626463      -153.1038 
   9   1.0000      -0.686519       -18.6811 
  10   1.0000      -0.530864       -14.4455 
  11   1.0000      -0.514889       -14.0108 
  12   1.0000      -0.352022        -9.5790 
  13   1.0000      -0.346717        -9.4346 
  14   1.0000      -0.314663        -8.5624 
  15   1.0000      -0.201312        -5.4780 
  16   1.0000      -0.181988        -4.9521 
  17   1.0000      -0.180982        -4.9248 
  18   1.0000      -0.170017        -4.6264 
  19   1.0000      -0.127417        -3.4672 
  20   1.0000      -0.035783        -0.9737 
  21   1.0000      -0.011234        -0.3057 
  22   0.0000       0.223473         6.0810 
  23   0.0000       0.231658         6.3037 
  24   0.0000       0.241558         6.5731 
  25   0.0000       0.257676         7.0117 
  26   0.0000       0.259844         7.0707 
  27   0.0000       0.275219         7.4891 
  28   0.0000       0.298356         8.1187 
  29   0.0000       0.309559         8.4235 
  30   0.0000       0.398818        10.8524 
  31   0.0000       0.411014        11.1842 
  32   0.0000       0.437183        11.8964 
  33   0.0000       0.466801        12.7023 
  34   0.0000       0.471072        12.8185 
  35   0.0000       0.500486        13.6189 
  36   0.0000       0.521088        14.1795 
  37   0.0000       0.538114        14.6428 
  38   0.0000       0.545901        14.8547 
  39   0.0000       0.573193        15.5974 
  40   0.0000       0.576366        15.6837 
  41   0.0000       0.590292        16.0627 
  42   0.0000       0.596041        16.2191 
  43   0.0000       0.615223        16.7411 
  44   0.0000       0.626045        17.0355 
  45   0.0000       0.627064        17.0633 
  46   0.0000       0.633595        17.2410 
  47   0.0000       0.646207        17.5842 
  48   0.0000       0.653172        17.7737 
  49   0.0000       0.666209        18.1285 
  50   0.0000       0.679372        18.4866 
  51   0.0000       0.705982        19.2107 
  52   0.0000       0.718057        19.5393 
  53   0.0000       0.783026        21.3072 
  54   0.0000       0.832840        22.6627 
  55   0.0000       0.833385        22.6776 
  56   0.0000       0.871926        23.7263 
  57   0.0000       0.907457        24.6932 
  58   0.0000       0.907790        24.7022 
  59   0.0000       0.910015        24.7628 
  60   0.0000       0.927821        25.2473 
  61   0.0000       0.994162        27.0525 
  62   0.0000       1.010346        27.4929 
  63   0.0000       1.046116        28.4663 
  64   0.0000       1.087009        29.5790 
  65   0.0000       1.112932        30.2844 
  66   0.0000       1.138243        30.9732 
  67   0.0000       1.160305        31.5735 
  68   0.0000       1.174663        31.9642 
  69   0.0000       1.199119        32.6297 
  70   0.0000       1.212234        32.9866 
  71   0.0000       1.253359        34.1056 
  72   0.0000       1.260689        34.3051 
  73   0.0000       1.280457        34.8430 
  74   0.0000       1.323394        36.0114 
  75   0.0000       1.351892        36.7868 
  76   0.0000       1.398587        38.0575 
  77   0.0000       1.422895        38.7189 
  78   0.0000       1.440185        39.1894 
  79   0.0000       1.451769        39.5046 
  80   0.0000       1.475361        40.1466 
  81   0.0000       1.478220        40.2244 
  82   0.0000       1.522351        41.4253 
  83   0.0000       1.523096        41.4456 
  84   0.0000       1.553723        42.2790 
  85   0.0000       1.599821        43.5334 
  86   0.0000       1.619490        44.0686 
  87   0.0000       1.626284        44.2534 
  88   0.0000       1.686966        45.9047 
  89   0.0000       1.710509        46.5453 
  90   0.0000       1.769215        48.1428 
  91   0.0000       1.813380        49.3446 
  92   0.0000       1.815982        49.4154 
  93   0.0000       1.828362        49.7523 
  94   0.0000       1.857119        50.5348 
  95   0.0000       1.909758        51.9672 
  96   0.0000       1.986271        54.0492 
  97   0.0000       2.058481        56.0141 
  98   0.0000       2.084085        56.7108 
  99   0.0000       2.120885        57.7122 
 100   0.0000       2.166276        58.9474 
 101   0.0000       2.172208        59.1088 
 102   0.0000       2.199907        59.8625 
 103   0.0000       2.203613        59.9634 
 104   0.0000       2.204188        59.9790 
 105   0.0000       2.270360        61.7796 
 106   0.0000       2.341902        63.7264 
 107   0.0000       2.381313        64.7988 
 108   0.0000       2.436679        66.3054 
 109   0.0000       2.470209        67.2178 
 110   0.0000       2.489993        67.7561 
 111   0.0000       2.505343        68.1738 
 112   0.0000       2.526389        68.7465 
 113   0.0000       2.627143        71.4882 
 114   0.0000       2.676742        72.8379 
 115   0.0000       2.683464        73.0208 
 116   0.0000       2.687482        73.1301 
 117   0.0000       2.709858        73.7390 
 118   0.0000       2.786975        75.8375 
 119   0.0000       2.818076        76.6838 
 120   0.0000       2.875462        78.2453 
 121   0.0000       2.889232        78.6200 
 122   0.0000       2.906404        79.0873 
 123   0.0000       2.944489        80.1236 
 124   0.0000       2.971685        80.8637 
 125   0.0000       3.040244        82.7292 
 126   0.0000       3.041994        82.7769 
 127   0.0000       3.064503        83.3894 
 128   0.0000       3.100734        84.3753 
 129   0.0000       3.144712        85.5720 
 130   0.0000       3.171151        86.2914 
 131   0.0000       3.174843        86.3919 
 132   0.0000       3.193450        86.8982 
 133   0.0000       3.217357        87.5487 
 134   0.0000       3.230895        87.9171 
 135   0.0000       3.259478        88.6949 
 136   0.0000       3.263947        88.8165 
 137   0.0000       3.326104        90.5079 
 138   0.0000       3.332155        90.6725 
 139   0.0000       3.345480        91.0351 
 140   0.0000       3.366576        91.6092 
 141   0.0000       3.370743        91.7226 
 142   0.0000       3.415817        92.9491 
 143   0.0000       3.426235        93.2326 
 144   0.0000       3.448801        93.8466 
 145   0.0000       3.450461        93.8918 
 146   0.0000       3.483442        94.7893 
 147   0.0000       3.496727        95.1508 
 148   0.0000       3.560712        96.8919 
 149   0.0000       3.586442        97.5921 
 150   0.0000       3.599661        97.9518 
 151   0.0000       3.631664        98.8226 
 152   0.0000       3.663995        99.7024 
 153   0.0000       3.697842       100.6234 
 154   0.0000       3.710221       100.9603 
 155   0.0000       3.725276       101.3699 
 156   0.0000       3.797238       103.3281 
 157   0.0000       3.831293       104.2548 
 158   0.0000       3.847485       104.6954 
 159   0.0000       3.893127       105.9374 
 160   0.0000       3.897495       106.0562 
 161   0.0000       3.916153       106.5640 
 162   0.0000       3.970087       108.0316 
 163   0.0000       4.014818       109.2488 
 164   0.0000       4.018922       109.3604 
 165   0.0000       4.043347       110.0251 
 166   0.0000       4.068769       110.7168 
 167   0.0000       4.091420       111.3332 
 168   0.0000       4.142244       112.7162 
 169   0.0000       4.172456       113.5383 
 170   0.0000       4.172701       113.5450 
 171   0.0000       4.181574       113.7864 
 172   0.0000       4.263624       116.0191 
 173   0.0000       4.292663       116.8093 
 174   0.0000       4.309789       117.2753 
 175   0.0000       4.406821       119.9157 
 176   0.0000       4.419117       120.2503 
 177   0.0000       4.472833       121.7120 
 178   0.0000       4.515353       122.8690 
 179   0.0000       4.556989       124.0020 
 180   0.0000       4.578429       124.5854 
 181   0.0000       4.601461       125.2121 
 182   0.0000       4.609345       125.4267 
 183   0.0000       4.686058       127.5141 
 184   0.0000       4.735828       128.8684 
 185   0.0000       4.796714       130.5252 
 186   0.0000       4.800231       130.6209 
 187   0.0000       4.881556       132.8339 
 188   0.0000       4.907560       133.5415 
 189   0.0000       5.048047       137.3644 
 190   0.0000       5.049210       137.3960 
 191   0.0000       5.157737       140.3491 
 192   0.0000       5.199617       141.4888 
 193   0.0000       5.231089       142.3452 
 194   0.0000       5.242506       142.6559 
 195   0.0000       5.261678       143.1775 
 196   0.0000       5.367308       146.0519 
 197   0.0000       5.510660       149.9527 
 198   0.0000       5.567124       151.4892 
 199   0.0000       5.801025       157.8539 
 200   0.0000       5.855512       159.3366 
 201   0.0000       5.958434       162.1372 
 202   0.0000       6.055069       164.7668 
 203   0.0000       6.148010       167.2959 
 204   0.0000       6.413102       174.5094 
 205   0.0000       6.598553       179.5558 
 206   0.0000       9.862154       268.3628 
 207   0.0000      11.702736       318.4476 
 208   0.0000      13.130913       357.3103 
 209   0.0000      13.971003       380.1703 

                    ********************************
                    * MULLIKEN POPULATION ANALYSIS *
                    ********************************

--------------------------------------------
MULLIKEN ATOMIC CHARGES AND SPIN POPULATIONS
--------------------------------------------
   0 C :   -0.184597    0.041729
   1 C :   -0.333624    0.381780
   2 S :   -0.137178    0.212115
   3 C :   -0.333203    0.381801
   4 C :   -0.184623    0.041720
   5 H :    0.029402   -0.005700
   6 H :    0.057389   -0.023876
   7 H :    0.057132   -0.023872
   8 H :    0.029303   -0.005697
Sum of atomic charges         :   -1.0000000
Sum of atomic spin populations:    1.0000000

-----------------------------------------------------
MULLIKEN REDUCED ORBITAL CHARGES AND SPIN POPULATIONS
-----------------------------------------------------
CHARGE
  0 C s       :     3.237355  s :     3.237355
      pz      :     0.997408  p :     2.838275
      px      :     0.869527
      py      :     0.971340
      dz2     :     0.021255  d :     0.099565
      dxz     :     0.026387
      dyz     :     0.006828
      dx2y2   :     0.018227
      dxy     :     0.026867
      f0      :     0.001057  f :     0.009403
      f+1     :     0.000949
      f-1     :     0.001389
      f+2     :     0.001488
      f-2     :     0.001496
      f+3     :     0.001602
      f-3     :     0.001422
  1 C s       :     3.205129  s :     3.205129
      pz      :     1.120253  p :     3.032134
      px      :     0.846743
      py      :     1.065138
      dz2     :     0.010463  d :     0.087443
      dxz     :     0.025723
      dyz     :     0.009785
      dx2y2   :     0.015533
      dxy     :     0.025939
      f0      :     0.000749  f :     0.008918
      f+1     :     0.001299
      f-1     :     0.001102
      f+2     :     0.001664
      f-2     :     0.001299
      f+3     :     0.001563
      f-3     :     0.001242
  2 S s       :     5.676157  s :     5.676157
      pz      :     3.415422  p :    10.212223
      px      :     3.471670
      py      :     3.325131
      dz2     :     0.045791  d :     0.226365
      dxz     :     0.058572
      dyz     :     0.028103
      dx2y2   :     0.033599
      dxy     :     0.060301
      f0      :     0.002001  f :     0.022433
      f+1     :     0.003935
      f-1     :     0.002497
      f+2     :     0.003003
      f-2     :     0.004057
      f+3     :     0.003620
      f-3     :     0.003321
  3 C s       :     3.204830  s :     3.204830
      pz      :     1.119825  p :     3.032099
      px      :     0.847084
      py      :     1.065190
      dz2     :     0.010431  d :     0.087359
      dxz     :     0.025838
      dyz     :     0.009701
      dx2y2   :     0.015383
      dxy     :     0.026006
      f0      :     0.000756  f :     0.008915
      f+1     :     0.001287
      f-1     :     0.001102
      f+2     :     0.001670
      f-2     :     0.001295
      f+3     :     0.001557
      f-3     :     0.001246
  4 C s       :     3.237446  s :     3.237446
      pz      :     0.997410  p :     2.838270
      px      :     0.869620
      py      :     0.971240
      dz2     :     0.020985  d :     0.099507
      dxz     :     0.026660
      dyz     :     0.006827
      dx2y2   :     0.018123
      dxy     :     0.026912
      f0      :     0.001068  f :     0.009400
      f+1     :     0.000931
      f-1     :     0.001389
      f+2     :     0.001494
      f-2     :     0.001491
      f+3     :     0.001600
      f-3     :     0.001427
  5 H s       :     0.936195  s :     0.936195
      pz      :     0.013728  p :     0.032061
      px      :     0.006034
      py      :     0.012299
      dz2     :     0.000409  d :     0.002343
      dxz     :     0.000472
      dyz     :     0.000289
      dx2y2   :     0.000718
      dxy     :     0.000454
  6 H s       :     0.901384  s :     0.901384
      pz      :     0.017186  p :     0.038681
      px      :     0.007858
      py      :     0.013636
      dz2     :     0.000838  d :     0.002546
      dxz     :     0.000387
      dyz     :     0.000368
      dx2y2   :     0.000509
      dxy     :     0.000445
  7 H s       :     0.901612  s :     0.901612
      pz      :     0.017246  p :     0.038709
      px      :     0.007814
      py      :     0.013650
      dz2     :     0.000835  d :     0.002547
      dxz     :     0.000384
      dyz     :     0.000372
      dx2y2   :     0.000515
      dxy     :     0.000441
  8 H s       :     0.936276  s :     0.936276
      pz      :     0.013718  p :     0.032079
      px      :     0.006068
      py      :     0.012292
      dz2     :     0.000415  d :     0.002342
      dxz     :     0.000466
      dyz     :     0.000292
      dx2y2   :     0.000719
      dxy     :     0.000450

SPIN
  0 C s       :     0.003084  s :     0.003084
      pz      :     0.017427  p :     0.028546
      px      :    -0.002637
      py      :     0.013756
      dz2     :     0.003200  d :     0.009903
      dxz     :     0.003758
      dyz     :    -0.000172
      dx2y2   :     0.001230
      dxy     :     0.001888
      f0      :     0.000100  f :     0.000195
      f+1     :     0.000022
      f-1     :    -0.000028
      f+2     :    -0.000026
      f-2     :    -0.000037
      f+3     :     0.000035
      f-3     :     0.000130
  1 C s       :     0.024333  s :     0.024333
      pz      :     0.192272  p :     0.359142
      px      :     0.011101
      py      :     0.155770
      dz2     :    -0.000321  d :    -0.000825
      dxz     :    -0.000284
      dyz     :    -0.000453
      dx2y2   :     0.000434
      dxy     :    -0.000201
      f0      :    -0.000104  f :    -0.000871
      f+1     :    -0.000018
      f-1     :    -0.000214
      f+2     :    -0.000288
      f-2     :    -0.000126
      f+3     :    -0.000014
      f-3     :    -0.000106
  2 S s       :     0.014918  s :     0.014918
      pz      :     0.106718  p :     0.166689
      px      :    -0.021930
      py      :     0.081902
      dz2     :    -0.001178  d :     0.029756
      dxz     :     0.016551
      dyz     :     0.001832
      dx2y2   :    -0.000417
      dxy     :     0.012968
      f0      :    -0.000039  f :     0.000752
      f+1     :     0.000120
      f-1     :     0.000535
      f+2     :     0.000251
      f-2     :    -0.000215
      f+3     :     0.000129
      f-3     :    -0.000028
  3 C s       :     0.024320  s :     0.024320
      pz      :     0.192201  p :     0.359179
      px      :     0.011124
      py      :     0.155854
      dz2     :    -0.000335  d :    -0.000826
      dxz     :    -0.000259
      dyz     :    -0.000455
      dx2y2   :     0.000417
      dxy     :    -0.000195
      f0      :    -0.000104  f :    -0.000871
      f+1     :    -0.000020
      f-1     :    -0.000213
      f+2     :    -0.000287
      f-2     :    -0.000126
      f+3     :    -0.000015
      f-3     :    -0.000106
  4 C s       :     0.003082  s :     0.003082
      pz      :     0.017524  p :     0.028549
      px      :    -0.002710
      py      :     0.013735
      dz2     :     0.003115  d :     0.009894
      dxz     :     0.003816
      dyz     :    -0.000176
      dx2y2   :     0.001243
      dxy     :     0.001894
      f0      :     0.000101  f :     0.000195
      f+1     :     0.000021
      f-1     :    -0.000027
      f+2     :    -0.000026
      f-2     :    -0.000039
      f+3     :     0.000035
      f-3     :     0.000130
  5 H s       :    -0.006662  s :    -0.006662
      pz      :     0.000740  p :     0.000887
      px      :    -0.000174
      py      :     0.000321
      dz2     :     0.000070  d :     0.000075
      dxz     :    -0.000004
      dyz     :    -0.000013
      dx2y2   :     0.000029
      dxy     :    -0.000007
  6 H s       :    -0.032606  s :    -0.032606
      pz      :     0.005084  p :     0.008292
      px      :    -0.000292
      py      :     0.003500
      dz2     :     0.000300  d :     0.000438
      dxz     :     0.000017
      dyz     :    -0.000003
      dx2y2   :     0.000114
      dxy     :     0.000010
  7 H s       :    -0.032601  s :    -0.032601
      pz      :     0.005087  p :     0.008291
      px      :    -0.000290
      py      :     0.003494
      dz2     :     0.000298  d :     0.000438
      dxz     :     0.000018
      dyz     :    -0.000002
      dx2y2   :     0.000114
      dxy     :     0.000011
  8 H s       :    -0.006664  s :    -0.006664
      pz      :     0.000749  p :     0.000892
      px      :    -0.000173
      py      :     0.000315
      dz2     :     0.000071  d :     0.000075
      dxz     :    -0.000004
      dyz     :    -0.000013
      dx2y2   :     0.000029
      dxy     :    -0.000007


                     *******************************
                     * LOEWDIN POPULATION ANALYSIS *
                     *******************************

-------------------------------------------
LOEWDIN ATOMIC CHARGES AND SPIN POPULATIONS
-------------------------------------------
   0 C :   -0.144083    0.077622
   1 C :   -0.364254    0.256724
   2 S :    0.393449    0.259506
   3 C :   -0.364276    0.256750
   4 C :   -0.144049    0.077614
   5 H :   -0.076577    0.004645
   6 H :   -0.111811    0.031248
   7 H :   -0.111823    0.031245
   8 H :   -0.076577    0.004646

----------------------------------------------------
LOEWDIN REDUCED ORBITAL CHARGES AND SPIN POPULATIONS
----------------------------------------------------
CHARGE
  0 C s       :     2.702348  s :     2.702348
      pz      :     0.964178  p :     2.917145
      px      :     0.986654
      py      :     0.966313
      dz2     :     0.086848  d :     0.474120
      dxz     :     0.111402
      dyz     :     0.050816
      dx2y2   :     0.104037
      dxy     :     0.121016
      f0      :     0.006459  f :     0.050470
      f+1     :     0.006170
      f-1     :     0.004392
      f+2     :     0.006691
      f-2     :     0.007890
      f+3     :     0.009806
      f-3     :     0.009061
  1 C s       :     2.741839  s :     2.741839
      pz      :     1.060117  p :     3.119706
      px      :     1.019367
      py      :     1.040222
      dz2     :     0.056068  d :     0.455997
      dxz     :     0.120461
      dyz     :     0.053828
      dx2y2   :     0.098266
      dxy     :     0.127373
      f0      :     0.004012  f :     0.046713
      f+1     :     0.008110
      f-1     :     0.003397
      f+2     :     0.006961
      f-2     :     0.006990
      f+3     :     0.009466
      f-3     :     0.007776
  2 S s       :     5.235531  s :     5.235531
      pz      :     3.292314  p :     9.843414
      px      :     3.333094
      py      :     3.218005
      dz2     :     0.088262  d :     0.455990
      dxz     :     0.116165
      dyz     :     0.059172
      dx2y2   :     0.075364
      dxy     :     0.117027
      f0      :     0.005035  f :     0.071616
      f+1     :     0.012793
      f-1     :     0.008029
      f+2     :     0.010914
      f-2     :     0.010896
      f+3     :     0.012435
      f-3     :     0.011514
  3 C s       :     2.741838  s :     2.741838
      pz      :     1.059903  p :     3.119676
      px      :     1.019596
      py      :     1.040177
      dz2     :     0.056105  d :     0.456047
      dxz     :     0.120872
      dyz     :     0.053656
      dx2y2   :     0.097786
      dxy     :     0.127627
      f0      :     0.004064  f :     0.046715
      f+1     :     0.008036
      f-1     :     0.003416
      f+2     :     0.007004
      f-2     :     0.006953
      f+3     :     0.009433
      f-3     :     0.007809
  4 C s       :     2.702348  s :     2.702348
      pz      :     0.963998  p :     2.917173
      px      :     0.986903
      py      :     0.966272
      dz2     :     0.085903  d :     0.474055
      dxz     :     0.112136
      dyz     :     0.050779
      dx2y2   :     0.104015
      dxy     :     0.121222
      f0      :     0.006531  f :     0.050473
      f+1     :     0.006060
      f-1     :     0.004407
      f+2     :     0.006723
      f-2     :     0.007848
      f+3     :     0.009803
      f-3     :     0.009100
  5 H s       :     0.875229  s :     0.875229
      pz      :     0.055329  p :     0.172207
      px      :     0.062670
      py      :     0.054208
      dz2     :     0.004430  d :     0.029141
      dxz     :     0.007173
      dyz     :     0.002646
      dx2y2   :     0.007527
      dxy     :     0.007365
  6 H s       :     0.883563  s :     0.883563
      pz      :     0.079152  p :     0.196823
      px      :     0.039445
      py      :     0.078226
      dz2     :     0.008897  d :     0.031425
      dxz     :     0.004142
      dyz     :     0.007523
      dx2y2   :     0.005897
      dxy     :     0.004966
  7 H s       :     0.883584  s :     0.883584
      pz      :     0.079078  p :     0.196815
      px      :     0.039540
      py      :     0.078196
      dz2     :     0.008862  d :     0.031424
      dxz     :     0.004156
      dyz     :     0.007504
      dx2y2   :     0.005922
      dxy     :     0.004980
  8 H s       :     0.875225  s :     0.875225
      pz      :     0.055459  p :     0.172209
      px      :     0.062496
      py      :     0.054254
      dz2     :     0.004473  d :     0.029142
      dxz     :     0.007150
      dyz     :     0.002685
      dx2y2   :     0.007500
      dxy     :     0.007334

SPIN
  0 C s       :    -0.000212  s :    -0.000212
      pz      :     0.013095  p :     0.021662
      px      :    -0.001635
      py      :     0.010203
      dz2     :     0.010557  d :     0.051750
      dxz     :     0.020637
      dyz     :    -0.000180
      dx2y2   :     0.004222
      dxy     :     0.016513
      f0      :     0.000803  f :     0.004421
      f+1     :     0.000576
      f-1     :    -0.000202
      f+2     :     0.001209
      f-2     :    -0.000038
      f+3     :     0.000369
      f-3     :     0.001703
  1 C s       :     0.007845  s :     0.007845
      pz      :     0.131541  p :     0.241106
      px      :     0.004275
      py      :     0.105290
      dz2     :     0.009170  d :     0.006203
      dxz     :    -0.002034
      dyz     :    -0.001641
      dx2y2   :     0.002481
      dxy     :    -0.001774
      f0      :    -0.000115  f :     0.001570
      f+1     :    -0.000165
      f-1     :     0.000706
      f+2     :     0.001083
      f-2     :    -0.000159
      f+3     :    -0.000153
      f-3     :     0.000374
  2 S s       :     0.002628  s :     0.002628
      pz      :     0.093810  p :     0.158663
      px      :    -0.008589
      py      :     0.073442
      dz2     :     0.000922  d :     0.089409
      dxz     :     0.047413
      dyz     :     0.003009
      dx2y2   :     0.000137
      dxy     :     0.037928
      f0      :     0.000354  f :     0.008805
      f+1     :     0.000719
      f-1     :     0.004589
      f+2     :     0.002474
      f-2     :    -0.000070
      f+3     :     0.000571
      f-3     :     0.000169
  3 C s       :     0.007846  s :     0.007846
      pz      :     0.131524  p :     0.241132
      px      :     0.004272
      py      :     0.105337
      dz2     :     0.009135  d :     0.006201
      dxz     :    -0.001998
      dyz     :    -0.001633
      dx2y2   :     0.002474
      dxy     :    -0.001777
      f0      :    -0.000118  f :     0.001570
      f+1     :    -0.000163
      f-1     :     0.000706
      f+2     :     0.001084
      f-2     :    -0.000160
      f+3     :    -0.000153
      f-3     :     0.000375
  4 C s       :    -0.000212  s :    -0.000212
      pz      :     0.013112  p :     0.021652
      px      :    -0.001649
      py      :     0.010189
      dz2     :     0.010195  d :     0.051750
      dxz     :     0.020860
      dyz     :    -0.000169
      dx2y2   :     0.004302
      dxy     :     0.016562
      f0      :     0.000824  f :     0.004424
      f+1     :     0.000542
      f-1     :    -0.000203
      f+2     :     0.001216
      f-2     :    -0.000038
      f+3     :     0.000374
      f-3     :     0.001708
  5 H s       :    -0.001259  s :    -0.001259
      pz      :     0.003165  p :     0.005440
      px      :    -0.000233
      py      :     0.002508
      dz2     :     0.000380  d :     0.000464
      dxz     :     0.000007
      dyz     :    -0.000016
      dx2y2   :     0.000086
      dxy     :     0.000007
  6 H s       :    -0.008100  s :    -0.008100
      pz      :     0.018912  p :     0.035007
      px      :     0.000440
      py      :     0.015656
      dz2     :     0.002844  d :     0.004341
      dxz     :     0.000212
      dyz     :     0.000050
      dx2y2   :     0.001035
      dxy     :     0.000200
  7 H s       :    -0.008101  s :    -0.008101
      pz      :     0.018918  p :     0.035004
      px      :     0.000445
      py      :     0.015641
      dz2     :     0.002828  d :     0.004341
      dxz     :     0.000224
      dyz     :     0.000050
      dx2y2   :     0.001038
      dxy     :     0.000202
  8 H s       :    -0.001258  s :    -0.001258
      pz      :     0.003166  p :     0.005441
      px      :    -0.000236
      py      :     0.002511
      dz2     :     0.000385  d :     0.000464
      dxz     :     0.000004
      dyz     :    -0.000017
      dx2y2   :     0.000085
      dxy     :     0.000007


                      *****************************
                      * MAYER POPULATION ANALYSIS *
                      *****************************

  NA   - Mulliken gross atomic population
  ZA   - Total nuclear charge
  QA   - Mulliken gross atomic charge
  VA   - Mayer's total valence
  BVA  - Mayer's bonded valence
  FA   - Mayer's free valence

  ATOM       NA         ZA         QA         VA         BVA        FA
  0 C      6.1846     6.0000    -0.1846     3.8512     3.8424     0.0088
  1 C      6.3336     6.0000    -0.3336     3.6767     3.5558     0.1209
  2 S     16.1372    16.0000    -0.1372     2.5173     2.4438     0.0735
  3 C      6.3332     6.0000    -0.3332     3.6768     3.5558     0.1209
  4 C      6.1846     6.0000    -0.1846     3.8517     3.8429     0.0088
  5 H      0.9706     1.0000     0.0294     1.0049     1.0049     0.0001
  6 H      0.9426     1.0000     0.0574     1.0195     1.0184     0.0011
  7 H      0.9429     1.0000     0.0571     1.0196     1.0185     0.0011
  8 H      0.9707     1.0000     0.0293     1.0050     1.0049     0.0001

  Mayer bond orders larger than 0.1
B(  0-C ,  1-C ) :   1.3201 B(  0-C ,  4-C ) :   1.4290 B(  0-C ,  5-H ) :   0.9803 
B(  1-C ,  2-S ) :   1.1332 B(  1-C ,  6-H ) :   0.9864 B(  2-S ,  3-C ) :   1.1331 
B(  3-C ,  4-C ) :   1.3203 B(  3-C ,  7-H ) :   0.9864 B(  4-C ,  8-H ) :   0.9804 


-------
TIMINGS
-------

Total SCF time: 0 days 0 hours 0 min 8 sec 

Total time                  ....       8.703 sec
Sum of individual times     ....       8.617 sec  ( 99.0%)

Fock matrix formation       ....       7.720 sec  ( 88.7%)
  XC integration            ....       2.263 sec  ( 29.3% of F)
    Basis function eval.    ....       0.301 sec  ( 13.3% of XC)
    Density eval.           ....       0.442 sec  ( 19.5% of XC)
    XC-Functional eval.     ....       0.037 sec  (  1.6% of XC)
    XC-Potential eval.      ....       1.412 sec  ( 62.4% of XC)
Diagonalization             ....       0.288 sec  (  3.3%)
Density matrix formation    ....       0.009 sec  (  0.1%)
Population analysis         ....       0.037 sec  (  0.4%)
Initial guess               ....       0.179 sec  (  2.1%)
Orbital Transformation      ....       0.000 sec  (  0.0%)
Orbital Orthonormalization  ....       0.000 sec  (  0.0%)
DIIS solution               ....       0.073 sec  (  0.8%)
Grid generation             ....       0.312 sec  (  3.6%)

-------------------------   --------------------
FINAL SINGLE POINT ENERGY      -552.137096160807
-------------------------   --------------------



           ************************************************************
           *        Program running with 4 parallel MPI-processes     *
           *              working on a common directory               *
           ************************************************************
------------------------------------------------------------------------------
                         ORCA SCF GRADIENT CALCULATION
------------------------------------------------------------------------------

Gradient of the Kohn-Sham DFT energy:
Kohn-Sham wavefunction type      ... UKS
Hartree-Fock exchange scaling    ...    0.250
Number of operators              ...    2
Number of atoms                  ...    9
Basis set dimensions             ...  210
Integral neglect threshold       ... 2.5e-11
Integral primitive cutoff        ... 2.5e-12

Nuclear repulsion gradient       ... done
One Electron Gradient            ... done
Pre-screening matrix             ... done
RI-JK gradient (InCore)          ... done
Exchange-correlation gradient    ... done

------------------
CARTESIAN GRADIENT
------------------

   1   C   :   -0.033641877    0.023786521   -0.021281539
   2   C   :    0.011747947   -0.027741643    0.024918248
   3   S   :    0.049812131   -0.000047856    0.000175683
   4   C   :    0.012007052    0.027747681   -0.024874173
   5   C   :   -0.033752591   -0.023754338    0.021102961
   6   H   :   -0.003149750   -0.000358123    0.000280446
   7   H   :    0.000081514   -0.000699533    0.000551952
   8   H   :    0.000040920    0.000706739   -0.000557607
   9   H   :   -0.003145347    0.000360552   -0.000315971

Difference to translation invariance:
           :   -0.0000000000   -0.0000000000   -0.0000000002

Norm of the cartesian gradient     ...    0.0993167872
RMS gradient                       ...    0.0191135246
MAX gradient                       ...    0.0498121315

-------
TIMINGS
-------

Total SCF gradient time            ...        2.961 sec

One electron gradient       ....       0.049 sec  (  1.7%)
Prescreening matrices       ....       0.229 sec  (  7.7%)
RI-JK gradient              ....       0.696 sec  ( 23.5%)
XC gradient                 ....       1.791 sec  ( 60.5%)
------------------------------------------------------------------------------
                         ORCA GEOMETRY RELAXATION STEP
------------------------------------------------------------------------------

Reading the OPT-File                    .... done
Getting information on internals        .... done
Copying old internal coords+grads       .... done
Making the new internal coordinates     .... (new redundants).... done
Validating the new internal coordinates .... (new redundants).... done
Calculating the B-matrix                .... done
Calculating the G,G- and P matrices     .... done
Transforming gradient to internals      .... done
Projecting the internal gradient        .... done
Number of atoms                         ....   9
Number of internal coordinates          ....  38
Current Energy                          ....  -552.137096161 Eh
Current gradient norm                   ....     0.099316787 Eh/bohr
Maximum allowed component of the step   ....  0.300
Current trust radius                    ....  0.300
Evaluating the initial hessian          ....  (Almloef) done
Projecting the Hessian                  .... done
Forming the augmented Hessian           .... done
Diagonalizing the augmented Hessian     .... done
Last element of RFO vector              ....  0.993185503
Lowest eigenvalues of augmented Hessian:
 -0.008913873  0.016569882  0.022661367  0.025030735  0.027048410
Length of the computed step             ....  0.117343863
The final length of the internal step   ....  0.117343863
Converting the step to cartesian space:
 Initial RMS(Int)=    0.0190356882
Transforming coordinates:
 Iter   0:  RMS(Cart)=    0.0239460556 RMS(Int)=    2.4964105349
 Iter   1:  RMS(Cart)=    0.0000673579 RMS(Int)=    0.0000529438
 Iter   2:  RMS(Cart)=    0.0000004924 RMS(Int)=    0.0000004560
 Iter   3:  RMS(Cart)=    0.0000000033 RMS(Int)=    0.0000000034
done
Storing new coordinates                 .... done

                                .--------------------.
          ----------------------|Geometry convergence|-------------------------
          Item                value                   Tolerance       Converged
          ---------------------------------------------------------------------
          RMS gradient        0.0123671859            0.0001000000      NO
          MAX gradient        0.0400807983            0.0003000000      NO
          RMS step            0.0190356882            0.0020000000      NO
          MAX step            0.0579832854            0.0040000000      NO
          ........................................................
          Max(Bonds)      0.0307      Max(Angles)    0.86
          Max(Dihed)        0.06      Max(Improp)    0.00
          ---------------------------------------------------------------------

The optimization has not yet converged - more geometry cycles are needed


    ---------------------------------------------------------------------------
                         Redundant Internal Coordinates
                            (Angstroem and degrees)

        Definition                    Value    dE/dq     Step     New-Value
    ----------------------------------------------------------------------------
     1. B(C   1,C   0)                1.3672 -0.040078  0.0307    1.3979   
     2. B(S   2,C   1)                1.6622 -0.033350  0.0284    1.6906   
     3. B(C   3,S   2)                1.6622 -0.033348  0.0284    1.6906   
     4. B(C   4,C   3)                1.3672 -0.040081  0.0307    1.3979   
     5. B(C   4,C   0)                1.4127  0.015572 -0.0145    1.3982   
     6. B(H   5,C   0)                1.0806 -0.002856  0.0040    1.0846   
     7. B(H   6,C   1)                1.0783 -0.000879  0.0012    1.0795   
     8. B(H   7,C   3)                1.0783 -0.000876  0.0012    1.0795   
     9. B(H   8,C   4)                1.0806 -0.002860  0.0040    1.0846   
    10. A(C   1,C   0,C   4)          111.75 -0.003468    0.36    112.11   
    11. A(C   1,C   0,H   5)          123.74  0.000301    0.05    123.78   
    12. A(C   4,C   0,H   5)          124.51  0.003167   -0.41    124.10   
    13. A(S   2,C   1,H   6)          121.31  0.000169   -0.01    121.30   
    14. A(C   0,C   1,S   2)          111.39 -0.000659    0.07    111.46   
    15. A(C   0,C   1,H   6)          127.30  0.000491   -0.06    127.24   
    16. A(C   1,S   2,C   3)           93.72  0.008273   -0.86     92.86   
    17. A(S   2,C   3,H   7)          121.28  0.000105   -0.00    121.27   
    18. A(S   2,C   3,C   4)          111.40 -0.000626    0.07    111.47   
    19. A(C   4,C   3,H   7)          127.33  0.000521   -0.07    127.26   
    20. A(C   3,C   4,H   8)          123.75  0.000337    0.04    123.79   
    21. A(C   0,C   4,H   8)          124.51  0.003184   -0.41    124.10   
    22. A(C   0,C   4,C   3)          111.74 -0.003521    0.37    112.10   
    23. D(S   2,C   1,C   0,C   4)     -0.01 -0.000012    0.02      0.01   
    24. D(H   6,C   1,C   0,H   5)      0.01  0.000024   -0.04     -0.04   
    25. D(H   6,C   1,C   0,C   4)   -179.99  0.000032   -0.06   -180.04   
    26. D(S   2,C   1,C   0,H   5)    179.98 -0.000020    0.04    180.02   
    27. D(C   3,S   2,C   1,H   6)    179.99 -0.000033    0.06    180.05   
    28. D(C   3,S   2,C   1,C   0)      0.01  0.000007   -0.01      0.00   
    29. D(C   4,C   3,S   2,C   1)     -0.01  0.000002   -0.00     -0.01   
    30. D(H   7,C   3,S   2,C   1)    179.98 -0.000033    0.06    180.04   
    31. D(C   0,C   4,C   3,H   7)   -179.99  0.000028   -0.05   -180.04   
    32. D(C   0,C   4,C   3,S   2)      0.01 -0.000010    0.02      0.02   
    33. D(H   8,C   4,C   0,H   5)     -0.02  0.000021   -0.04     -0.06   
    34. D(H   8,C   4,C   0,C   1)    179.98  0.000012   -0.03    179.95   
    35. D(C   3,C   4,C   0,H   5)   -179.99  0.000022   -0.04   -180.03   
    36. D(H   8,C   4,C   3,S   2)   -179.97 -0.000009    0.02   -179.95   
    37. D(C   3,C   4,C   0,C   1)      0.00  0.000014   -0.03     -0.02   
    38. D(H   8,C   4,C   3,H   7)      0.04  0.000029   -0.05     -0.01   
    ----------------------------------------------------------------------------

         *************************************************************
         *                GEOMETRY OPTIMIZATION CYCLE   2            *
         *************************************************************
---------------------------------
CARTESIAN COORDINATES (ANGSTROEM)
---------------------------------
  C     11.762906   10.829134    9.860496
  C     10.469181   11.222420    9.505947
  S      9.300750   10.309245   10.317807
  C     10.462575    9.394600   11.137398
  C     11.759180    9.785899   10.791281
  H     12.662551   11.282459    9.458701
  H     10.190143   12.000568    8.811729
  H     10.177435    8.617005   11.829778
  H     12.655579    9.331070   11.198563

----------------------------
CARTESIAN COORDINATES (A.U.)
----------------------------
  NO LB      ZA    FRAG     MASS         X           Y           Z
   0 C     6.0000    0    12.011   22.228671   20.464097   18.633638
   1 C     6.0000    0    12.011   19.783884   21.207301   17.963637
   2 S    16.0000    0    32.060   17.575871   19.481649   19.497829
   3 C     6.0000    0    12.011   19.771402   17.753221   21.046632
   4 C     6.0000    0    12.011   22.221629   18.492669   20.392566
   5 H     1.0000    0     1.008   23.928754   21.320757   17.874354
[...]
      dz2     :     0.042074  d :     0.203578
      dxz     :     0.052535
      dyz     :     0.024677
      dx2y2   :     0.030193
      dxy     :     0.054099
      f0      :     0.001808  f :     0.019576
      f+1     :     0.003455
      f-1     :     0.002119
      f+2     :     0.002540
      f-2     :     0.003722
      f+3     :     0.003049
      f-3     :     0.002883
  3 C s       :     3.213416  s :     3.213416
      pz      :     1.132896  p :     3.033604
      px      :     0.837979
      py      :     1.062730
      dz2     :     0.010023  d :     0.083176
      dxz     :     0.024033
      dyz     :     0.009460
      dx2y2   :     0.015213
      dxy     :     0.024447
      f0      :     0.000730  f :     0.008174
      f+1     :     0.001162
      f-1     :     0.001004
      f+2     :     0.001519
      f-2     :     0.001253
      f+3     :     0.001376
      f-3     :     0.001130
  4 C s       :     3.233726  s :     3.233726
      pz      :     0.990593  p :     2.828859
      px      :     0.870718
      py      :     0.967549
      dz2     :     0.021868  d :     0.102048
      dxz     :     0.026825
      dyz     :     0.006915
      dx2y2   :     0.018859
      dxy     :     0.027581
      f0      :     0.001041  f :     0.009204
      f+1     :     0.000928
      f-1     :     0.001419
      f+2     :     0.001407
      f-2     :     0.001539
      f+3     :     0.001550
      f-3     :     0.001320
  5 H s       :     0.935343  s :     0.935343
      pz      :     0.013240  p :     0.032487
      px      :     0.007389
      py      :     0.011859
      dz2     :     0.000409  d :     0.002326
      dxz     :     0.000463
      dyz     :     0.000280
      dx2y2   :     0.000731
      dxy     :     0.000444
  6 H s       :     0.896671  s :     0.896671
      pz      :     0.018150  p :     0.040194
      px      :     0.007792
      py      :     0.014252
      dz2     :     0.000835  d :     0.002432
      dxz     :     0.000351
      dyz     :     0.000359
      dx2y2   :     0.000483
      dxy     :     0.000404
  7 H s       :     0.896789  s :     0.896789
      pz      :     0.018205  p :     0.040214
      px      :     0.007751
      py      :     0.014258
      dz2     :     0.000832  d :     0.002432
      dxz     :     0.000349
      dyz     :     0.000362
      dx2y2   :     0.000488
      dxy     :     0.000401
  8 H s       :     0.935491  s :     0.935491
      pz      :     0.013222  p :     0.032507
      px      :     0.007428
      py      :     0.011857
      dz2     :     0.000415  d :     0.002326
      dxz     :     0.000456
      dyz     :     0.000282
      dx2y2   :     0.000732
      dxy     :     0.000441

SPIN
  0 C s       :     0.001056  s :     0.001056
      pz      :     0.011155  p :     0.016391
      px      :    -0.003771
      py      :     0.009008
      dz2     :     0.003183  d :     0.009478
      dxz     :     0.003462
      dyz     :    -0.000141
      dx2y2   :     0.001251
      dxy     :     0.001723
      f0      :     0.000104  f :     0.000216
      f+1     :     0.000025
      f-1     :    -0.000019
      f+2     :    -0.000021
      f-2     :    -0.000034
      f+3     :     0.000031
      f-3     :     0.000130
  1 C s       :     0.026874  s :     0.026874
      pz      :     0.205794  p :     0.380085
      px      :     0.012442
      py      :     0.161849
      dz2     :    -0.000020  d :    -0.000653
      dxz     :    -0.000307
      dyz     :    -0.000628
      dx2y2   :     0.000544
      dxy     :    -0.000242
      f0      :    -0.000119  f :    -0.000885
      f+1     :    -0.000021
      f-1     :    -0.000210
      f+2     :    -0.000279
      f-2     :    -0.000137
      f+3     :    -0.000017
      f-3     :    -0.000102
  2 S s       :     0.011960  s :     0.011960
      pz      :     0.098548  p :     0.153239
      px      :    -0.021957
      py      :     0.076649
      dz2     :    -0.001313  d :     0.025875
      dxz     :     0.014511
      dyz     :     0.001603
      dx2y2   :    -0.000462
      dxy     :     0.011535
      f0      :    -0.000054  f :     0.000596
      f+1     :     0.000110
      f-1     :     0.000437
      f+2     :     0.000225
      f-2     :    -0.000203
      f+3     :     0.000112
      f-3     :    -0.000031
  3 C s       :     0.026863  s :     0.026863
      pz      :     0.205705  p :     0.380007
      px      :     0.012460
      py      :     0.161842
      dz2     :    -0.000035  d :    -0.000656
      dxz     :    -0.000285
      dyz     :    -0.000629
      dx2y2   :     0.000532
      dxy     :    -0.000239
      f0      :    -0.000119  f :    -0.000885
      f+1     :    -0.000022
      f-1     :    -0.000209
      f+2     :    -0.000278
      f-2     :    -0.000137
      f+3     :    -0.000018
      f-3     :    -0.000102
  4 C s       :     0.001046  s :     0.001046
      pz      :     0.011201  p :     0.016331
      px      :    -0.003853
      py      :     0.008983
      dz2     :     0.003097  d :     0.009466
      dxz     :     0.003517
      dyz     :    -0.000145
      dx2y2   :     0.001264
      dxy     :     0.001733
      f0      :     0.000105  f :     0.000216
      f+1     :     0.000024
      f-1     :    -0.000018
      f+2     :    -0.000021
      f-2     :    -0.000035
      f+3     :     0.000032
      f-3     :     0.000130
  5 H s       :    -0.005667  s :    -0.005667
      pz      :     0.000584  p :     0.000656
      px      :    -0.000201
      py      :     0.000273
      dz2     :     0.000064  d :     0.000066
      dxz     :    -0.000005
      dyz     :    -0.000012
      dx2y2   :     0.000026
      dxy     :    -0.000007
  6 H s       :    -0.032286  s :    -0.032286
      pz      :     0.005234  p :     0.008463
      px      :    -0.000268
      py      :     0.003497
      dz2     :     0.000307  d :     0.000450
      dxz     :     0.000017
      dyz     :     0.000001
      dx2y2   :     0.000116
      dxy     :     0.000009
  7 H s       :    -0.032276  s :    -0.032276
      pz      :     0.005233  p :     0.008461
      px      :    -0.000266
      py      :     0.003493
      dz2     :     0.000305  d :     0.000450
      dxz     :     0.000019
      dyz     :     0.000001
      dx2y2   :     0.000116
      dxy     :     0.000009
  8 H s       :    -0.005663  s :    -0.005663
      pz      :     0.000588  p :     0.000659
      px      :    -0.000200
      py      :     0.000271
      dz2     :     0.000065  d :     0.000067
      dxz     :    -0.000005
      dyz     :    -0.000012
      dx2y2   :     0.000026
      dxy     :    -0.000007


                     *******************************
                     * LOEWDIN POPULATION ANALYSIS *
                     *******************************

-------------------------------------------
LOEWDIN ATOMIC CHARGES AND SPIN POPULATIONS
-------------------------------------------
   0 C :   -0.144844    0.066942
   1 C :   -0.337016    0.276550
   2 S :    0.350599    0.242748
   3 C :   -0.337016    0.276484
   4 C :   -0.144814    0.066893
   5 H :   -0.074213    0.003631
   6 H :   -0.119247    0.031569
   7 H :   -0.119245    0.031559
   8 H :   -0.074204    0.003625

----------------------------------------------------
LOEWDIN REDUCED ORBITAL CHARGES AND SPIN POPULATIONS
----------------------------------------------------
CHARGE
  0 C s       :     2.708562  s :     2.708562
      pz      :     0.971332  p :     2.921724
      px      :     0.974701
      py      :     0.975691
      dz2     :     0.088387  d :     0.466308
      dxz     :     0.108195
      dyz     :     0.051104
      dx2y2   :     0.100454
      dxy     :     0.118168
      f0      :     0.006211  f :     0.048250
      f+1     :     0.005813
      f-1     :     0.004689
      f+2     :     0.006277
      f-2     :     0.007970
      f+3     :     0.009121
      f-3     :     0.008168
  1 C s       :     2.761634  s :     2.761634
      pz      :     1.074397  p :     3.120776
      px      :     0.996189
      py      :     1.050190
      dz2     :     0.050436  d :     0.414366
      dxz     :     0.108945
      dyz     :     0.049069
      dx2y2   :     0.090037
      dxy     :     0.115879
      f0      :     0.003576  f :     0.040240
      f+1     :     0.007001
      f-1     :     0.002963
      f+2     :     0.005885
      f-2     :     0.006308
      f+3     :     0.008053
      f-3     :     0.006454
  2 S s       :     5.291851  s :     5.291851
      pz      :     3.315743  p :     9.893899
      px      :     3.332209
      py      :     3.245947
      dz2     :     0.079224  d :     0.402837
      dxz     :     0.103132
      dyz     :     0.051472
      dx2y2   :     0.064231
      dxy     :     0.104779
      f0      :     0.004508  f :     0.060814
      f+1     :     0.010883
      f-1     :     0.006435
      f+2     :     0.009008
      f-2     :     0.009788
      f+3     :     0.010341
      f-3     :     0.009850
  3 C s       :     2.761630  s :     2.761630
      pz      :     1.074132  p :     3.120769
      px      :     0.996508
      py      :     1.050128
      dz2     :     0.050436  d :     0.414375
      dxz     :     0.109265
      dyz     :     0.048941
      dx2y2   :     0.089640
      dxy     :     0.116094
      f0      :     0.003615  f :     0.040242
      f+1     :     0.006941
      f-1     :     0.002978
      f+2     :     0.005915
      f-2     :     0.006282
      f+3     :     0.008033
      f-3     :     0.006478
  4 C s       :     2.708562  s :     2.708562
      pz      :     0.971147  p :     2.921678
      px      :     0.974896
      py      :     0.975635
      dz2     :     0.087523  d :     0.466321
      dxz     :     0.108910
      dyz     :     0.051087
      dx2y2   :     0.100475
      dxy     :     0.118326
      f0      :     0.006277  f :     0.048252
      f+1     :     0.005716
      f-1     :     0.004701
      f+2     :     0.006297
      f-2     :     0.007941
      f+3     :     0.009123
      f-3     :     0.008198
  5 H s       :     0.875159  s :     0.875159
      pz      :     0.053976  p :     0.170309
      px      :     0.063215
      py      :     0.053119
      dz2     :     0.004330  d :     0.028744
      dxz     :     0.007102
      dyz     :     0.002537
      dx2y2   :     0.007475
      dxy     :     0.007301
  6 H s       :     0.888446  s :     0.888446
      pz      :     0.080237  p :     0.199392
      px      :     0.039078
      py      :     0.080076
      dz2     :     0.008953  d :     0.031409
      dxz     :     0.003946
      dyz     :     0.007690
      dx2y2   :     0.005957
      dxy     :     0.004862
  7 H s       :     0.888453  s :     0.888453
      pz      :     0.080164  p :     0.199384
      px      :     0.039171
      py      :     0.080048
      dz2     :     0.008921  d :     0.031409
      dxz     :     0.003961
      dyz     :     0.007672
      dx2y2   :     0.005978
      dxy     :     0.004877
  8 H s       :     0.875158  s :     0.875158
      pz      :     0.054109  p :     0.170302
      px      :     0.063037
      py      :     0.053156
      dz2     :     0.004374  d :     0.028744
      dxz     :     0.007081
      dyz     :     0.002576
      dx2y2   :     0.007445
      dxy     :     0.007268

SPIN
  0 C s       :    -0.000394  s :    -0.000394
      pz      :     0.010402  p :     0.016694
      px      :    -0.002080
      py      :     0.008372
      dz2     :     0.009792  d :     0.046754
      dxz     :     0.018504
      dyz     :    -0.000152
      dx2y2   :     0.003863
      dxy     :     0.014746
      f0      :     0.000694  f :     0.003887
      f+1     :     0.000575
      f-1     :    -0.000237
      f+2     :     0.001039
      f-2     :    -0.000036
      f+3     :     0.000340
      f-3     :     0.001512
  1 C s       :     0.008840  s :     0.008840
      pz      :     0.144028  p :     0.261920
      px      :     0.004985
      py      :     0.112908
      dz2     :     0.008011  d :     0.004574
      dxz     :    -0.001966
      dyz     :    -0.001730
      dx2y2   :     0.001987
      dxy     :    -0.001728
      f0      :    -0.000149  f :     0.001215
      f+1     :    -0.000144
      f-1     :     0.000679
      f+2     :     0.000864
      f-2     :    -0.000167
      f+3     :    -0.000138
      f-3     :     0.000271
  2 S s       :     0.002641  s :     0.002641
      pz      :     0.091909  p :     0.154806
      px      :    -0.009592
      py      :     0.072490
      dz2     :     0.000654  d :     0.077872
      dxz     :     0.040959
      dyz     :     0.002719
      dx2y2   :     0.000099
      dxy     :     0.033441
      f0      :     0.000270  f :     0.007428
      f+1     :     0.000635
      f-1     :     0.003733
      f+2     :     0.002154
      f-2     :    -0.000058
      f+3     :     0.000495
      f-3     :     0.000199
  3 C s       :     0.008838  s :     0.008838
      pz      :     0.143986  p :     0.261862
      px      :     0.004981
      py      :     0.112894
      dz2     :     0.007967  d :     0.004569
      dxz     :    -0.001937
      dyz     :    -0.001723
      dx2y2   :     0.001991
      dxy     :    -0.001729
      f0      :    -0.000150  f :     0.001215
      f+1     :    -0.000144
      f-1     :     0.000678
      f+2     :     0.000865
      f-2     :    -0.000168
      f+3     :    -0.000138
      f-3     :     0.000271
  4 C s       :    -0.000395  s :    -0.000395
      pz      :     0.010390  p :     0.016649
      px      :    -0.002097
      py      :     0.008356
      dz2     :     0.009464  d :     0.046752
      dxz     :     0.018724
      dyz     :    -0.000142
      dx2y2   :     0.003929
      dxy     :     0.014777
      f0      :     0.000712  f :     0.003887
      f+1     :     0.000543
      f-1     :    -0.000238
      f+2     :     0.001045
      f-2     :    -0.000036
      f+3     :     0.000345
      f-3     :     0.001517
  5 H s       :    -0.001200  s :    -0.001200
      pz      :     0.002585  p :     0.004418
      px      :    -0.000260
      py      :     0.002093
      dz2     :     0.000347  d :     0.000413
      dxz     :     0.000002
      dyz     :    -0.000016
      dx2y2   :     0.000075
      dxy     :     0.000006
  6 H s       :    -0.008448  s :    -0.008448
      pz      :     0.019117  p :     0.035421
      px      :     0.000487
      py      :     0.015817
      dz2     :     0.003007  d :     0.004595
      dxz     :     0.000212
      dyz     :     0.000080
      dx2y2   :     0.001100
      dxy     :     0.000197
  7 H s       :    -0.008446  s :    -0.008446
      pz      :     0.019111  p :     0.035411
      px      :     0.000492
      py      :     0.015808
      dz2     :     0.002991  d :     0.004594
      dxz     :     0.000223
      dyz     :     0.000080
      dx2y2   :     0.001103
      dxy     :     0.000198
  8 H s       :    -0.001198  s :    -0.001198
      pz      :     0.002583  p :     0.004411
      px      :    -0.000263
      py      :     0.002092
      dz2     :     0.000351  d :     0.000412
      dxz     :    -0.000001
      dyz     :    -0.000016
      dx2y2   :     0.000074
      dxy     :     0.000005


                      *****************************
                      * MAYER POPULATION ANALYSIS *
                      *****************************

  NA   - Mulliken gross atomic population
  ZA   - Total nuclear charge
  QA   - Mulliken gross atomic charge
  VA   - Mayer's total valence
  BVA  - Mayer's bonded valence
  FA   - Mayer's free valence

  ATOM       NA         ZA         QA         VA         BVA        FA
  0 C      6.1741     6.0000    -0.1741     3.8629     3.8553     0.0076
  1 C      6.3386     6.0000    -0.3386     3.6652     3.5318     0.1335
  2 S     16.1559    16.0000    -0.1559     2.4618     2.3971     0.0647
  3 C      6.3384     6.0000    -0.3384     3.6654     3.5320     0.1334
  4 C      6.1738     6.0000    -0.1738     3.8634     3.8557     0.0076
  5 H      0.9702     1.0000     0.0298     1.0050     1.0049     0.0000
  6 H      0.9393     1.0000     0.0607     1.0209     1.0198     0.0011
  7 H      0.9394     1.0000     0.0606     1.0209     1.0199     0.0011
  8 H      0.9703     1.0000     0.0297     1.0050     1.0050     0.0000

  Mayer bond orders larger than 0.1
B(  0-C ,  1-C ) :   1.3066 B(  0-C ,  4-C ) :   1.4563 B(  0-C ,  5-H ) :   0.9806 
B(  1-C ,  2-S ) :   1.1122 B(  1-C ,  6-H ) :   0.9879 B(  2-S ,  3-C ) :   1.1121 
B(  3-C ,  4-C ) :   1.3068 B(  3-C ,  7-H ) :   0.9880 B(  4-C ,  8-H ) :   0.9807 


-------
TIMINGS
-------

Total SCF time: 0 days 0 hours 0 min 7 sec 

Total time                  ....       7.549 sec
Sum of individual times     ....       7.449 sec  ( 98.7%)

Fock matrix formation       ....       6.656 sec  ( 88.2%)
  XC integration            ....       2.062 sec  ( 31.0% of F)
    Basis function eval.    ....       0.289 sec  ( 14.0% of XC)
    Density eval.           ....       0.411 sec  ( 19.9% of XC)
    XC-Functional eval.     ....       0.035 sec  (  1.7% of XC)
    XC-Potential eval.      ....       1.199 sec  ( 58.1% of XC)
Diagonalization             ....       0.228 sec  (  3.0%)
Density matrix formation    ....       0.008 sec  (  0.1%)
Population analysis         ....       0.052 sec  (  0.7%)
Initial guess               ....       0.022 sec  (  0.3%)
Orbital Transformation      ....       0.000 sec  (  0.0%)
Orbital Orthonormalization  ....       0.016 sec  (  0.2%)
DIIS solution               ....       0.055 sec  (  0.7%)
Grid generation             ....       0.429 sec  (  5.7%)

-------------------------   --------------------
FINAL SINGLE POINT ENERGY      -552.144002720687
-------------------------   --------------------

                                *** OPTIMIZATION RUN DONE ***

                            ***************************************
                            *     ORCA property calculations      *
                            ***************************************

                                    ---------------------
                                    Active property flags
                                    ---------------------
   (+) Dipole Moment


------------------------------------------------------------------------------
                       ORCA ELECTRIC PROPERTIES CALCULATION
------------------------------------------------------------------------------

Dipole Moment Calculation                       ... on
Quadrupole Moment Calculation                   ... off
Polarizability Calculation                      ... off
GBWName                                         ... system.gbw
Electron density file                           ... system.scfp.tmp
The origin for moment calculation is the CENTER OF MASS  = (19.711566, 19.480289 19.504854)

-------------
DIPOLE MOMENT
-------------
                                X             Y             Z
Electronic contribution:     -3.78864       0.00292      -0.01223
Nuclear contribution   :      3.76615      -0.00291       0.01220
                        -----------------------------------------
Total Dipole Moment    :     -0.02249       0.00001      -0.00003
                        -----------------------------------------
Magnitude (a.u.)       :      0.02249
Magnitude (Debye)      :      0.05716


Timings for individual modules:

Sum of individual times         ...       83.153 sec (=   1.386 min)
GTO integral calculation        ...        3.545 sec (=   0.059 min)   4.3 %
SCF iterations                  ...       57.471 sec (=   0.958 min)  69.1 %
SCF Gradient evaluation         ...       21.984 sec (=   0.366 min)  26.4 %
Geometry relaxation             ...        0.153 sec (=   0.003 min)   0.2 %
                             ****ORCA TERMINATED NORMALLY****
TOTAL RUN TIME: 0 days 0 hours 1 minutes 23 seconds 541 msec
