
                                 *****************
                                 * O   R   C   A *
                                 *****************

           --- An Ab Initio, DFT and Semiempirical electronic structure package ---

                  #######################################################
                  #                        -***-                        #
                  #  Department of molecular theory and spectroscopy    #
                  #              Directorship: Frank Neese              #
                  # Max Planck Institute for Chemical Energy Conversion #
                  #                  D-45470 Muelheim/Ruhr              #
                  #                       Germany                       #
                  #                                                     #
                  #                  All rights reserved                #
                  #                        -***-                        #
                  #######################################################


                         Program Version 4.0.1 -  RELEASE  -


 With contributions from (in alphabetic order):
   Daniel Aravena         : Magnetic Properties
   Michael Atanasov       : Ab Initio Ligand Field Theory
   Ute Becker             : Parallelization
   Martin Brehm           : Molecular dynamics
   Dmytro Bykov           : SCF Hessian
   Vijay G. Chilkuri      : MRCI spin determinant printing
   Dipayan Datta          : RHF DLPNO-CCSD density
   Achintya Kumar Dutta   : EOM-CC, STEOM-CC
   Dmitry Ganyushin       : Spin-Orbit,Spin-Spin,Magnetic field MRCI
   Yang Guo               : DLPNO-NEVPT2, CIM, IAO-localization
   Andreas Hansen         : Spin unrestricted coupled pair/coupled cluster methods
   Lee Huntington         : MR-EOM, pCC
   Robert Izsak           : Overlap fitted RIJCOSX, COSX-SCS-MP3, EOM
   Christian Kollmar      : KDIIS, OOCD, Brueckner-CCSD(T), CCSD density
   Simone Kossmann        : Meta GGA functionals, TD-DFT gradient, OOMP2, MP2 Hessian
   Martin Krupicka        : AUTO-CI
   Dagmar Lenk            : GEPOL surface
   Dimitrios Liakos       : Extrapolation schemes; parallel MDCI
   Dimitrios Manganas     : ROCIS; embedding schemes
   Dimitrios Pantazis     : SARC Basis sets
   Taras Petrenko         : DFT Hessian,TD-DFT gradient, ASA, ECA, R-Raman, ABS, FL, XAS/XES, NRVS
   Peter Pinski           : DLPNO-MP2
   Christoph Reimann      : Effective Core Potentials
   Marius Retegan         : Local ZFS, SOC
   Christoph Riplinger    : Optimizer, TS searches, QM/MM, DLPNO-CCSD(T), (RO)-DLPNO pert. Triples
   Tobias Risthaus        : Range-separated hybrids, TD-DFT gradient, RPA, STAB
   Michael Roemelt        : Restricted open shell CIS
   Masaaki Saitow         : Open-shell DLPNO
   Barbara Sandhoefer     : DKH picture change effects
   Kantharuban Sivalingam : CASSCF convergence, NEVPT2, FIC-MRCI
   Georgi Stoychev        : AutoAux
   Boris Wezisla          : Elementary symmetry handling
   Frank Wennmohs         : Technical directorship


 We gratefully acknowledge several colleagues who have allowed us to
 interface, adapt or use parts of their codes:
   Stefan Grimme, W. Hujo, H. Kruse,             : VdW corrections, initial TS optimization,
                  C. Bannwarth                     DFT functionals, gCP, sTDA/sTD-DF
   Ed Valeev                                     : LibInt (2-el integral package), F12 methods
   Garnet Chan, S. Sharma, J. Yang, R. Olivares  : DMRG
   Ulf Ekstrom                                   : XCFun DFT Library
   Mihaly Kallay                                 : mrcc  (arbitrary order and MRCC methods)
   Andreas Klamt, Michael Diedenhofen            : otool_cosmo (COSMO solvation model)
   Jiri Pittner, Ondrej Demel                    : Mk-CCSD
   Frank Weinhold                                : gennbo (NPA and NBO analysis)
   Christopher J. Cramer and Donald G. Truhlar   : smd solvation model


 Your calculation uses the libint2 library for the computation of 2-el integrals
 For citations please refer to: http://libint.valeyev.net

 This ORCA versions uses:
   CBLAS   interface :  Fast vector & matrix operations
   LAPACKE interface :  Fast linear algebra routines
   SCALAPACK package :  Parallel linear algebra routines


Your calculation utilizes the basis: cc-pVTZ 
       H, B-Ne : Obtained from the ccRepo (grant-hill.group.shef.ac.uk/ccrepo) Feb. 2017
                 T. H. Dunning, Jr., J. Chem. Phys. 90, 1007 (1989)
            He : Obtained from the ccRepo (grant-hill.group.shef.ac.uk/ccrepo) Feb. 2017
                 D. E. Woon, T. H. Dunning, Jr., J. Chem. Phys. 100, 2975 (1994)
  Li-Be, Na-Mg : Obtained from the ccRepo (grant-hill.group.shef.ac.uk/ccrepo) Feb. 2017
                 B. P. Prascher, D. E. Woon, K. A. Peterson, T. H. Dunning, Jr., A. K. Wilson, Theor. Chem. Acc. 128, 69 (2011)
         Al-Ar : Obtained from the ccRepo (grant-hill.group.shef.ac.uk/ccrepo) Feb. 2017
                 D. E. Woon, T. H. Dunning, Jr., J. Chem. Phys. 98, 1358 (1993)
            Ca : Obtained from the Peterson Research Group Website (tyr0.chem.wsu.edu/~kipeters) Feb. 2017
                 J. Koput, K. A. Peterson, J. Phys. Chem. 106, 9595 (2002)
         Sc-Zn : Obtained from the ccRepo (grant-hill.group.shef.ac.uk/ccrepo) Feb. 2017
                 N. B. Balabanov, K. A. Peterson, J. Chem. Phys. 123, 064107 (2005)
                 N. B. Balabanov, K. A. Peterson, J. Chem. Phys. 125, 074110 (2006)
         Ga-Kr : Obtained from the ccRepo (grant-hill.group.shef.ac.uk/ccrepo) Feb. 2017
                 A. K. Wilson, D. E. Woon, K. A. Peterson, T. H. Dunning, Jr., J. Chem. Phys. 110, 7667 (1999)
             Y : Obtained from the ccRepo (grant-hill.group.shef.ac.uk/ccrepo) Feb. 2017
                 K. A. Peterson, D. Figgen, M. Dolg, H. Stoll, J. Chem. Phys. 126, 124101 (2007)
        Ag, Au : Obtained from the Peterson Research Group Website (tyr0.chem.wsu.edu/~kipeters) Feb. 2017
                 K. A. Peterson, C. Puzzarini, Theor. Chem. Acc. 114, 283 (2005)

Your calculation utilizes the auxiliary basis: def2/J
   F. Weigend, Phys. Chem. Chem. Phys. 8, 1057 (2006).

================================================================================
                                        WARNINGS
                       Please study these warnings very carefully!
================================================================================

Warning: TCutStore was < 0. Adjusted to Thresh (uncritical)

INFO   : the flag for use of LIBINT has been found!

================================================================================
                                       INPUT FILE
================================================================================
NAME = system.inp
|  1> * xyz  0 1
|  2>   C      11.749001     10.834662      9.855707
|  3>   C      10.480477     11.213691      9.514388
|  4>   S       9.340647     10.309169     10.317908
|  5>   C      10.473986      9.403360     11.129074
|  6>   C      11.745299      9.780424     10.796077
|  7>   H      12.641061     11.290838      9.450909
|  8>   H      10.194209     11.988999      8.821817
|  9>   H      10.181502      8.628585     11.819672
| 10>   H      12.634118      9.322672     11.206148
| 11> * 
| 12> 
| 13> %pal
| 14>  nprocs 4
| 15> end
| 16> 
| 17> %elprop
| 18> Polar 1
| 19> end
| 20> 
| 21> ! DFT  PBE0 RIJK cc-pVTZ CHELPG
| 22> 
| 23> 
| 24>                          ****END OF INPUT****
================================================================================

                       ****************************
                       * Single Point Calculation *
                       ****************************

---------------------------------
CARTESIAN COORDINATES (ANGSTROEM)
---------------------------------
  C     11.749001   10.834662    9.855707
  C     10.480477   11.213691    9.514388
  S      9.340647   10.309169   10.317908
  C     10.473986    9.403360   11.129074
  C     11.745299    9.780424   10.796077
  H     12.641061   11.290838    9.450909
  H     10.194209   11.988999    8.821817
  H     10.181502    8.628585   11.819672
  H     12.634118    9.322672   11.206148

----------------------------
CARTESIAN COORDINATES (A.U.)
----------------------------
  NO LB      ZA    FRAG     MASS         X           Y           Z
   0 C     6.0000    0    12.011   22.202394   20.474544   18.624587
   1 C     6.0000    0    12.011   19.805231   21.190805   17.979588
   2 S    16.0000    0    32.060   17.651265   19.481506   19.498020
   3 C     6.0000    0    12.011   19.792965   17.769775   21.030902
   4 C     6.0000    0    12.011   22.195398   18.482323   20.401629
   5 H     1.0000    0     1.008   23.888143   21.336592   17.859630
   6 H     1.0000    0     1.008   19.264263   22.655925   16.670818
   7 H     1.0000    0     1.008   19.240250   16.305663   22.335943
   8 H     1.0000    0     1.008   23.875023   17.617297   21.176551

--------------------------------
INTERNAL COORDINATES (ANGSTROEM)
--------------------------------
 C      0   0   0     0.000000000000     0.00000000     0.00000000
 C      1   0   0     1.367228869348     0.00000000     0.00000000
 S      2   1   0     1.662232495105   111.38827447     0.00000000
 C      3   2   1     1.662208624980    93.72072202     0.00000000
 C      4   3   2     1.367223831739   111.39842166     0.00000000
 H      1   2   3     1.080615106030   123.73620081   179.98104616
 H      2   1   3     1.078288668553   127.30003635   180.02486511
 H      4   3   2     1.078308299368   121.27501432   179.98226917
 H      5   4   3     1.080599062236   123.75008972   180.03329880

---------------------------
INTERNAL COORDINATES (A.U.)
---------------------------
 C      0   0   0     0.000000000000     0.00000000     0.00000000
 C      1   0   0     2.583688125458     0.00000000     0.00000000
 S      2   1   0     3.141164186654   111.38827447     0.00000000
 C      3   2   1     3.141119078654    93.72072202     0.00000000
 C      4   3   2     2.583678605756   111.39842166     0.00000000
 H      1   2   3     2.042066606575   123.73620081   179.98104616
 H      2   1   3     2.037670276875   127.30003635   180.02486511
 H      4   3   2     2.037707373739   121.27501432   179.98226917
 H      5   4   3     2.042036288199   123.75008972   180.03329880

---------------------
BASIS SET INFORMATION
---------------------
There are 3 groups of distinct atoms

 Group   1 Type C   : 18s5p2d1f contracted to 4s3p2d1f pattern {8811/311/11/1}
 Group   2 Type S   : 41s16p2d1f contracted to 5s4p2d1f pattern {13131311/7711/11/1}
 Group   3 Type H   : 5s2p1d contracted to 3s2p1d pattern {311/11/1}

Atom   0C    basis set group =>   1
Atom   1C    basis set group =>   1
Atom   2S    basis set group =>   2
Atom   3C    basis set group =>   1
Atom   4C    basis set group =>   1
Atom   5H    basis set group =>   3
Atom   6H    basis set group =>   3
Atom   7H    basis set group =>   3
Atom   8H    basis set group =>   3
-------------------------------
AUXILIARY BASIS SET INFORMATION
-------------------------------
There are 3 groups of distinct atoms

 Group   1 Type C   : 12s5p4d2f1g contracted to 6s4p3d1f1g pattern {711111/2111/211/2/1}
 Group   2 Type S   : 14s5p5d2f1g contracted to 8s4p3d1f1g pattern {71111111/2111/311/2/1}
 Group   3 Type H   : 5s2p1d contracted to 3s1p1d pattern {311/2/1}

Atom   0C    basis set group =>   1
Atom   1C    basis set group =>   1
Atom   2S    basis set group =>   2
Atom   3C    basis set group =>   1
Atom   4C    basis set group =>   1
Atom   5H    basis set group =>   3
Atom   6H    basis set group =>   3
Atom   7H    basis set group =>   3
Atom   8H    basis set group =>   3


           ************************************************************
           *        Program running with 4 parallel MPI-processes     *
           *              working on a common directory               *
           ************************************************************
------------------------------------------------------------------------------
                           ORCA GTO INTEGRAL CALCULATION
                           -- RI-GTO INTEGRALS CHOSEN --
------------------------------------------------------------------------------

                         BASIS SET STATISTICS AND STARTUP INFO

Gaussian basis set:
 # of primitive gaussian shells          ...  196
 # of primitive gaussian functions       ...  370
 # of contracted shells                  ...   76
 # of contracted basis functions         ...  210
 Highest angular momentum                ...    3
 Maximum contraction depth               ...   13
Auxiliary gaussian basis set:
 # of primitive gaussian shells          ...  155
 # of primitive gaussian functions       ...  421
 # of contracted shells                  ...   97
 # of contracted aux-basis functions     ...  291
 Highest angular momentum                ...    4
 Maximum contraction depth               ...    7
Ratio of auxiliary to basis functions    ...  1.39
Integral package used                  ... LIBINT
 One Electron integrals                  ... done
 Ordering auxiliary basis shells         ... done
 Integral threshhold             Thresh  ...  1.000e-10
 Primitive cut-off               TCut    ...  1.000e-11
 Pre-screening matrix                    ... done
 Shell pair data                         ... 
 Ordering of the shell pairs             ... done (   0.000 sec) 2899 of 2926 pairs
 Determination of significant pairs      ... done (   0.000 sec)
 Creation of shell pair data             ... done (   0.001 sec)
 Storage of shell pair data              ... done (   0.001 sec)
 Shell pair data done in (   0.002 sec)
 Computing two index integrals           ... done
 Cholesky decomposition of the V-matrix  ... done


Timings:
 Total evaluation time                   ...   0.266 sec (  0.004 min)
 One electron matrix time                ...   0.026 sec (  0.000 min) =  9.8%
 Schwartz matrix evaluation time         ...   0.218 sec (  0.004 min) = 82.0%
 Two index repulsion integral time       ...   0.001 sec (  0.000 min) =  0.5%
 Cholesky decomposition of V             ...   0.001 sec (  0.000 min) =  0.4%
 Three index repulsion integral time     ...   0.000 sec (  0.000 min) =  0.0%



           ************************************************************
           *        Program running with 4 parallel MPI-processes     *
           *              working on a common directory               *
           ************************************************************
-------------------------------------------------------------------------------
                                 ORCA SCF
-------------------------------------------------------------------------------

------------
SCF SETTINGS
------------
Hamiltonian:
 Density Functional     Method          .... DFT(GTOs)
 Exchange Functional    Exchange        .... PBE
   PBE kappa parameter   XKappa         ....  0.804000
   PBE mue parameter    XMuePBE         ....  0.219520
 Correlation Functional Correlation     .... PBE
   PBE beta parameter  CBetaPBE         ....  0.066725
 LDA part of GGA corr.  LDAOpt          .... PW91-LDA
 Gradients option       PostSCFGGA      .... off
 Hybrid DFT is turned on
   Fraction HF Exchange ScalHFX         ....  0.250000
   Scaling of DF-GGA-X  ScalDFX         ....  0.750000
   Scaling of DF-GGA-C  ScalDFC         ....  1.000000
   Scaling of DF-LDA-C  ScalLDAC        ....  1.000000
   Perturbative correction              ....  0.000000
   NL short-range parameter             ....  6.900000
 RI-approximation to the Coulomb term is turned on
   Number of auxiliary basis functions  .... 291
   RI-JK (J+K treated both via RI)      .... on


General Settings:
 Integral files         IntName         .... system
 Hartree-Fock type      HFTyp           .... RHF
 Total Charge           Charge          ....    0
 Multiplicity           Mult            ....    1
 Number of Electrons    NEL             ....   44
 Basis Dimension        Dim             ....  210
 Nuclear Repulsion      ENuc            ....    206.2683590002 Eh

Convergence Acceleration:
 DIIS                   CNVDIIS         .... on
   Start iteration      DIISMaxIt       ....    12
   Startup error        DIISStart       ....  0.200000
   # of expansion vecs  DIISMaxEq       ....     5
   Bias factor          DIISBfac        ....   1.050
   Max. coefficient     DIISMaxC        ....  10.000
 Newton-Raphson         CNVNR           .... off
 SOSCF                  CNVSOSCF        .... on
   Start iteration      SOSCFMaxIt      ....   150
   Startup grad/error   SOSCFStart      ....  0.003300
 Level Shifting         CNVShift        .... on
   Level shift para.    LevelShift      ....    0.2500
   Turn off err/grad.   ShiftErr        ....    0.0010
 Zerner damping         CNVZerner       .... off
 Static damping         CNVDamp         .... on
   Fraction old density DampFac         ....    0.7000
   Max. Damping (<1)    DampMax         ....    0.9800
   Min. Damping (>=0)   DampMin         ....    0.0000
   Turn off err/grad.   DampErr         ....    0.1000
 Fernandez-Rico         CNVRico         .... off

SCF Procedure:
 Maximum # iterations   MaxIter         ....   125
 SCF integral mode      SCFMode         .... Direct
   Integral package                     .... LIBINT
 Reset frequeny         DirectResetFreq ....    20
 Integral Threshold     Thresh          ....  1.000e-10 Eh
 Primitive CutOff       TCut            ....  1.000e-11 Eh

Convergence Tolerance:
 Convergence Check Mode ConvCheckMode   .... Total+1el-Energy
 Convergence forced     ConvForced      .... 0
 Energy Change          TolE            ....  1.000e-06 Eh
 1-El. energy change                    ....  1.000e-03 Eh
 Orbital Gradient       TolG            ....  5.000e-05
 Orbital Rotation angle TolX            ....  5.000e-05
 DIIS Error             TolErr          ....  1.000e-06


Diagonalization of the overlap matrix:
Smallest eigenvalue                        ... 1.612e-04
Time for diagonalization                   ...    0.007 sec
Threshold for overlap eigenvalues          ... 1.000e-08
Number of eigenvalues below threshold      ... 0
Time for construction of square roots      ...    0.002 sec
Total time needed                          ...    0.009 sec

-------------------
DFT GRID GENERATION
-------------------

General Integration Accuracy     IntAcc      ...  4.340
Radial Grid Type                 RadialGrid  ... Gauss-Chebyshev
Angular Grid (max. acc.)         AngularGrid ... Lebedev-110
Angular grid pruning method      GridPruning ... 3 (G Style)
Weight generation scheme         WeightScheme... Becke
Basis function cutoff            BFCut       ...    1.0000e-10
Integration weight cutoff        WCut        ...    1.0000e-14
Grids for H and He will be reduced by one unit

# of grid points (after initial pruning)     ...  11606 (   0.0 sec)
# of grid points (after weights+screening)   ...  11089 (   0.0 sec)
nearest neighbour list constructed           ...    0.0 sec
Grid point re-assignment to atoms done       ...    0.0 sec
Grid point division into batches done        ...    0.0 sec
Reduced shell lists constructed in    0.0 sec

Total number of grid points                  ...    11089
Total number of batches                      ...      177
Average number of points per batch           ...       62
Average number of grid points per atom       ...     1232
Average number of shells per batch           ...    66.11 (86.99%)
Average number of basis functions per batch  ...   181.37 (86.37%)
Average number of large shells per batch     ...    57.96 (87.67%)
Average number of large basis fcns per batch ...   160.52 (88.51%)
Average number of aux-shells per batch       ...    66.11 (68.15%)
Average number of aux functions per batch    ...   181.37 (62.33%)
Maximum spatial batch extension              ...  17.90, 15.68, 15.07 au
Average spatial batch extension              ...   0.79,  1.01,  1.02 au

Time for grid setup =    0.055 sec

------------------------------
INITIAL GUESS: MODEL POTENTIAL
------------------------------
Loading Hartree-Fock densities                     ... done
Calculating cut-offs                               ... done
Setting up the integral package                    ... done
Initializing the effective Hamiltonian             ... done
Starting the Coulomb interaction                   ... done (   0.0 sec)
Reading the grid                                   ... done
Mapping shells                                     ... done
Starting the XC term evaluation                    ... done (   0.1 sec)
  promolecular density results
     # of electrons  =     43.994876190
     EX              =    -46.568433518
     EC              =     -1.545993248
     EX+EC           =    -48.114426766
Transforming the Hamiltonian                       ... done (   0.0 sec)
Diagonalizing the Hamiltonian                      ... done (   0.0 sec)
Back transforming the eigenvectors                 ... done (   0.0 sec)
Now organizing SCF variables                       ... done
                      ------------------
                      INITIAL GUESS DONE (   0.2 sec)
                      ------------------
--------------
SCF ITERATIONS
--------------
ITER       Energy         Delta-E        Max-DP      RMS-DP      [F,P]     Damp
  0   -552.0250491928   0.000000000000 0.03730727  0.00092213  0.1422280 0.7000
  1   -552.0570856723  -0.032036479589 0.02876662  0.00078845  0.0867497 0.7000
                               ***Turning on DIIS***
  2   -552.0987970716  -0.041711399261 0.04980570  0.00130673  0.0344115 0.0000
  3   -552.1669009073  -0.068103835724 0.02409683  0.00060889  0.0605005 0.0000
  4   -552.1978725876  -0.030971680277 0.00871572  0.00028111  0.0222962 0.0000
  5   -552.2017815061  -0.003908918445 0.00408553  0.00012661  0.0080619 0.0000
                      *** Initiating the SOSCF procedure ***
                           *** Shutting down DIIS ***
                      *** Re-Reading the Fockian *** 
                      *** Removing any level shift *** 
ITER      Energy       Delta-E        Grad      Rot      Max-DP    RMS-DP
  6   -552.20239790  -0.0006163986  0.001641  0.001641  0.001928  0.000054
  7   -552.20247996  -0.0000820538  0.001303  0.005054  0.002028  0.000054
  8   -552.20247644   0.0000035204  0.001187  0.001358  0.000843  0.000021
  9   -552.20249424  -0.0000178008  0.000109  0.000215  0.000486  0.000009
 10   -552.20249439  -0.0000001510  0.000135  0.000135  0.000132  0.000003
 11   -552.20249470  -0.0000003082  0.000027  0.000043  0.000065  0.000001
 12   -552.20249471  -0.0000000104  0.000017  0.000019  0.000036  0.000001
                 **** Energy Check signals convergence ****
              ***Rediagonalizing the Fockian in SOSCF/NRSCF***

               *****************************************************
               *                     SUCCESS                       *
               *           SCF CONVERGED AFTER  13 CYCLES          *
               *****************************************************

Setting up the final grid:

General Integration Accuracy     IntAcc      ...  4.670
Radial Grid Type                 RadialGrid  ... Gauss-Chebyshev
Angular Grid (max. acc.)         AngularGrid ... Lebedev-302
Angular grid pruning method      GridPruning ... 3 (G Style)
Weight generation scheme         WeightScheme... Becke
Basis function cutoff            BFCut       ...    1.0000e-10
Integration weight cutoff        WCut        ...    1.0000e-14
Grids for H and He will be reduced by one unit

# of grid points (after initial pruning)     ...  45270 (   0.0 sec)
# of grid points (after weights+screening)   ...  42839 (   0.0 sec)
nearest neighbour list constructed           ...    0.0 sec
Grid point re-assignment to atoms done       ...    0.0 sec
Grid point division into batches done        ...    0.1 sec
Reduced shell lists constructed in    0.2 sec

Total number of grid points                  ...    42839
Total number of batches                      ...      676
Average number of points per batch           ...       63
Average number of grid points per atom       ...     4760
Average number of shells per batch           ...    64.00 (84.21%)
Average number of basis functions per batch  ...   174.99 (83.33%)
Average number of large shells per batch     ...    52.99 (82.80%)
Average number of large basis fcns per batch ...   146.50 (83.72%)
Maximum spatial batch extension              ...  15.37, 16.94, 17.06 au
Average spatial batch extension              ...   0.51,  0.57,  0.57 au

Final grid set up in    0.2 sec
Final integration                            ... done (   0.2 sec)
Change in XC energy                          ...    -0.000205315
Integrated number of electrons               ...    43.999998554
Previous integrated no of electrons          ...    43.998869804

----------------
TOTAL SCF ENERGY
----------------

Total Energy       :         -552.20270003 Eh          -15026.19939 eV

Components:
Nuclear Repulsion  :          206.26835900 Eh            5612.84740 eV
Electronic Energy  :         -758.47105903 Eh          -20639.04679 eV
One Electron Energy:        -1166.26525646 Eh          -31735.69104 eV
Two Electron Energy:          407.79419743 Eh           11096.64425 eV

Virial components:
Potential Energy   :        -1102.40817954 Eh          -29998.05164 eV
Kinetic Energy     :          550.20547950 Eh           14971.85225 eV
Virial Ratio       :            2.00362995


DFT components:
N(Alpha)           :       21.999999276899 electrons
N(Beta)            :       21.999999276899 electrons
N(Total)           :       43.999998553797 electrons
E(X)               :      -35.222070947847 Eh       
E(C)               :       -1.552441544025 Eh       
E(XC)              :      -36.774512491872 Eh       

---------------
SCF CONVERGENCE
---------------

  Last Energy change         ...   -1.0015e-08  Tolerance :   1.0000e-06
  Last MAX-Density change    ...    7.0575e-06  Tolerance :   1.0000e-05
  Last RMS-Density change    ...    1.2689e-07  Tolerance :   1.0000e-06
  Last Orbital Gradient      ...    2.5410e-06  Tolerance :   5.0000e-05
  Last Orbital Rotation      ...    5.5982e-06  Tolerance :   5.0000e-05

             **** THE GBW FILE WAS UPDATED (system.gbw) ****
             **** DENSITY FILE WAS UPDATED (system.scfp.tmp) ****
             **** ENERGY FILE WAS UPDATED (system.en.tmp) ****
----------------
ORBITAL ENERGIES
----------------

  NO   OCC          E(Eh)            E(eV) 
   0   2.0000     -89.085839     -2424.1489 
   1   2.0000     -10.247221      -278.8410 
   2   2.0000     -10.247200      -278.8405 
   3   2.0000     -10.228906      -278.3427 
   4   2.0000     -10.228374      -278.3282 
   5   2.0000      -7.966786      -216.7873 
   6   2.0000      -5.884746      -160.1321 
   7   2.0000      -5.880599      -160.0192 
   8   2.0000      -5.868470      -159.6892 
   9   2.0000      -0.921838       -25.0845 
  10   2.0000      -0.760653       -20.6984 
  11   2.0000      -0.749122       -20.3847 
  12   2.0000      -0.578302       -15.7364 
  13   2.0000      -0.574647       -15.6369 
  14   2.0000      -0.534699       -14.5499 
  15   2.0000      -0.425124       -11.5682 
  16   2.0000      -0.406405       -11.0588 
  17   2.0000      -0.404727       -11.0132 
  18   2.0000      -0.403692       -10.9850 
  19   2.0000      -0.355815        -9.6822 
  20   2.0000      -0.264704        -7.2030 
  21   2.0000      -0.252272        -6.8647 
  22   0.0000      -0.006628        -0.1804 
  23   0.0000       0.048434         1.3180 
  24   0.0000       0.056860         1.5472 
  25   0.0000       0.059941         1.6311 
  26   0.0000       0.093907         2.5553 
  27   0.0000       0.099173         2.6986 
  28   0.0000       0.115976         3.1559 
  29   0.0000       0.127094         3.4584 
  30   0.0000       0.203724         5.5436 
  31   0.0000       0.225564         6.1379 
  32   0.0000       0.226319         6.1585 
  33   0.0000       0.268357         7.3024 
  34   0.0000       0.279348         7.6014 
  35   0.0000       0.298451         8.1213 
  36   0.0000       0.324027         8.8172 
  37   0.0000       0.335506         9.1296 
  38   0.0000       0.342304         9.3146 
  39   0.0000       0.362911         9.8753 
  40   0.0000       0.383945        10.4477 
  41   0.0000       0.391252        10.6465 
  42   0.0000       0.396906        10.8004 
  43   0.0000       0.396935        10.8011 
  44   0.0000       0.416796        11.3416 
  45   0.0000       0.417268        11.3544 
  46   0.0000       0.438101        11.9213 
  47   0.0000       0.446592        12.1524 
  48   0.0000       0.462719        12.5912 
  49   0.0000       0.478016        13.0075 
  50   0.0000       0.492374        13.3982 
  51   0.0000       0.522231        14.2106 
  52   0.0000       0.524476        14.2717 
  53   0.0000       0.588834        16.0230 
  54   0.0000       0.615298        16.7431 
  55   0.0000       0.622245        16.9322 
  56   0.0000       0.664384        18.0788 
  57   0.0000       0.693322        18.8662 
  58   0.0000       0.700970        19.0744 
  59   0.0000       0.710333        19.3292 
  60   0.0000       0.719684        19.5836 
  61   0.0000       0.796927        21.6855 
  62   0.0000       0.814363        22.1599 
  63   0.0000       0.831443        22.6247 
  64   0.0000       0.870947        23.6997 
  65   0.0000       0.901884        24.5415 
  66   0.0000       0.928282        25.2598 
  67   0.0000       0.958252        26.0754 
  68   0.0000       0.971420        26.4337 
  69   0.0000       0.990681        26.9578 
  70   0.0000       1.005536        27.3620 
  71   0.0000       1.056635        28.7525 
  72   0.0000       1.059381        28.8272 
  73   0.0000       1.062761        28.9192 
  74   0.0000       1.112445        30.2712 
  75   0.0000       1.144357        31.1395 
  76   0.0000       1.200579        32.6694 
  77   0.0000       1.207615        32.8609 
  78   0.0000       1.236179        33.6381 
  79   0.0000       1.244109        33.8539 
  80   0.0000       1.273463        34.6527 
  81   0.0000       1.273703        34.6592 
  82   0.0000       1.306922        35.5632 
  83   0.0000       1.327210        36.1152 
  84   0.0000       1.337224        36.3877 
  85   0.0000       1.397591        38.0304 
  86   0.0000       1.414769        38.4978 
  87   0.0000       1.415354        38.5137 
  88   0.0000       1.473328        40.0913 
  89   0.0000       1.503700        40.9178 
  90   0.0000       1.561247        42.4837 
  91   0.0000       1.584165        43.1073 
  92   0.0000       1.591466        43.3060 
  93   0.0000       1.616339        43.9828 
  94   0.0000       1.632858        44.4323 
  95   0.0000       1.692184        46.0467 
  96   0.0000       1.764380        48.0112 
  97   0.0000       1.827256        49.7222 
  98   0.0000       1.855311        50.4856 
  99   0.0000       1.884086        51.2686 
 100   0.0000       1.949677        53.0534 
 101   0.0000       1.957850        53.2758 
 102   0.0000       1.965531        53.4848 
 103   0.0000       1.966769        53.5185 
 104   0.0000       1.986816        54.0640 
 105   0.0000       2.054458        55.9046 
 106   0.0000       2.117554        57.6216 
 107   0.0000       2.147410        58.4340 
 108   0.0000       2.210955        60.1631 
 109   0.0000       2.245062        61.0913 
 110   0.0000       2.263252        61.5862 
 111   0.0000       2.265147        61.6378 
 112   0.0000       2.297871        62.5283 
 113   0.0000       2.407155        65.5020 
 114   0.0000       2.441766        66.4438 
 115   0.0000       2.460833        66.9627 
 116   0.0000       2.461910        66.9920 
 117   0.0000       2.480962        67.5104 
 118   0.0000       2.559004        69.6340 
 119   0.0000       2.583453        70.2993 
 120   0.0000       2.645481        71.9872 
 121   0.0000       2.664102        72.4939 
 122   0.0000       2.683018        73.0086 
 123   0.0000       2.717507        73.9471 
 124   0.0000       2.749782        74.8254 
 125   0.0000       2.809521        76.4510 
 126   0.0000       2.817913        76.6793 
 127   0.0000       2.838759        77.2466 
 128   0.0000       2.878623        78.3313 
 129   0.0000       2.913432        79.2785 
 130   0.0000       2.948013        80.2195 
 131   0.0000       2.955965        80.4359 
 132   0.0000       2.967786        80.7576 
 133   0.0000       2.986386        81.2637 
 134   0.0000       3.004402        81.7539 
 135   0.0000       3.033085        82.5344 
 136   0.0000       3.040077        82.7247 
 137   0.0000       3.100219        84.3613 
 138   0.0000       3.116424        84.8022 
 139   0.0000       3.116776        84.8118 
 140   0.0000       3.146391        85.6176 
 141   0.0000       3.153067        85.7993 
 142   0.0000       3.175496        86.4096 
 143   0.0000       3.201193        87.1089 
 144   0.0000       3.230368        87.9028 
 145   0.0000       3.230915        87.9177 
 146   0.0000       3.261043        88.7375 
 147   0.0000       3.262573        88.7791 
 148   0.0000       3.339514        90.8728 
 149   0.0000       3.365345        91.5757 
 150   0.0000       3.375842        91.8613 
 151   0.0000       3.400635        92.5360 
 152   0.0000       3.444515        93.7300 
 153   0.0000       3.471531        94.4652 
 154   0.0000       3.483980        94.8039 
 155   0.0000       3.501946        95.2928 
 156   0.0000       3.567665        97.0811 
 157   0.0000       3.615266        98.3764 
 158   0.0000       3.633100        98.8617 
 159   0.0000       3.682001       100.1923 
 160   0.0000       3.685199       100.2794 
 161   0.0000       3.691744       100.4575 
 162   0.0000       3.746342       101.9432 
 163   0.0000       3.793890       103.2370 
 164   0.0000       3.798638       103.3662 
 165   0.0000       3.840111       104.4947 
 166   0.0000       3.849784       104.7580 
 167   0.0000       3.875889       105.4683 
 168   0.0000       3.935762       107.0975 
 169   0.0000       3.951628       107.5293 
 170   0.0000       3.960011       107.7574 
 171   0.0000       3.965376       107.9034 
 172   0.0000       4.052523       110.2748 
 173   0.0000       4.077569       110.9563 
 174   0.0000       4.099701       111.5585 
 175   0.0000       4.193782       114.1186 
 176   0.0000       4.212051       114.6157 
 177   0.0000       4.269411       116.1766 
 178   0.0000       4.291471       116.7769 
 179   0.0000       4.341748       118.1450 
 180   0.0000       4.349555       118.3574 
 181   0.0000       4.367331       118.8411 
 182   0.0000       4.389274       119.4382 
 183   0.0000       4.477333       121.8344 
 184   0.0000       4.517208       122.9195 
 185   0.0000       4.582627       124.6996 
 186   0.0000       4.586396       124.8022 
 187   0.0000       4.652606       126.6038 
 188   0.0000       4.694973       127.7567 
 189   0.0000       4.826304       131.3304 
 190   0.0000       4.839575       131.6915 
 191   0.0000       4.934117       134.2642 
 192   0.0000       4.985118       135.6519 
 193   0.0000       5.008561       136.2899 
 194   0.0000       5.033431       136.9666 
 195   0.0000       5.054821       137.5487 
 196   0.0000       5.149199       140.1168 
 197   0.0000       5.292573       144.0182 
 198   0.0000       5.349595       145.5699 
 199   0.0000       5.581932       151.8921 
 200   0.0000       5.634628       153.3260 
 201   0.0000       5.743227       156.2811 
 202   0.0000       5.836325       158.8145 
 203   0.0000       5.922480       161.1589 
 204   0.0000       6.195325       168.5834 
 205   0.0000       6.381132       173.6394 
 206   0.0000       9.642423       262.3837 
 207   0.0000      11.474563       312.2387 
 208   0.0000      12.903710       351.1278 
 209   0.0000      13.746185       374.0527 

                    ********************************
                    * MULLIKEN POPULATION ANALYSIS *
                    ********************************

-----------------------
MULLIKEN ATOMIC CHARGES
-----------------------
   0 C :   -0.128189
   1 C :   -0.204117
   2 S :    0.126046
   3 C :   -0.203775
   4 C :   -0.128168
   5 H :    0.119680
   6 H :    0.149565
   7 H :    0.149370
   8 H :    0.119588
Sum of atomic charges:   -0.0000000

--------------------------------
MULLIKEN REDUCED ORBITAL CHARGES
--------------------------------
  0 C s       :     3.243142  s :     3.243142
      pz      :     0.938979  p :     2.780546
      px      :     0.914430
      py      :     0.927136
      dz2     :     0.018953  d :     0.095226
      dxz     :     0.023965
      dyz     :     0.007685
      dx2y2   :     0.018346
      dxy     :     0.026278
      f0      :     0.000949  f :     0.009275
      f+1     :     0.000985
      f-1     :     0.001326
      f+2     :     0.001477
      f-2     :     0.001508
      f+3     :     0.001667
      f-3     :     0.001363
  1 C s       :     3.221279  s :     3.221279
      pz      :     1.013169  p :     2.874231
      px      :     0.865377
      py      :     0.995685
      dz2     :     0.011898  d :     0.099837
      dxz     :     0.029649
      dyz     :     0.010438
      dx2y2   :     0.018044
      dxy     :     0.029809
      f0      :     0.000678  f :     0.008770
      f+1     :     0.001353
      f-1     :     0.001040
      f+2     :     0.001595
      f-2     :     0.001285
      f+3     :     0.001627
      f-3     :     0.001192
  2 S s       :     5.762453  s :     5.762453
      pz      :     3.289047  p :     9.881122
      px      :     3.372117
      py      :     3.219959
      dz2     :     0.051668  d :     0.208469
      dxz     :     0.043144
      dyz     :     0.028317
      dx2y2   :     0.036910
      dxy     :     0.048430
      f0      :     0.001825  f :     0.021910
      f+1     :     0.004323
      f-1     :     0.001725
      f+2     :     0.002802
      f-2     :     0.003838
      f+3     :     0.003967
      f-3     :     0.003431
  3 C s       :     3.221017  s :     3.221017
      pz      :     1.012636  p :     2.874230
      px      :     0.865968
      py      :     0.995626
      dz2     :     0.011870  d :     0.099761
      dxz     :     0.029777
      dyz     :     0.010351
      dx2y2   :     0.017877
      dxy     :     0.029886
      f0      :     0.000685  f :     0.008766
      f+1     :     0.001342
      f-1     :     0.001041
      f+2     :     0.001602
      f-2     :     0.001280
      f+3     :     0.001620
      f-3     :     0.001196
  4 C s       :     3.243214  s :     3.243214
      pz      :     0.939206  p :     2.780499
      px      :     0.914110
      py      :     0.927184
      dz2     :     0.018772  d :     0.095181
      dxz     :     0.024168
      dyz     :     0.007666
      dx2y2   :     0.018238
      dxy     :     0.026337
      f0      :     0.000959  f :     0.009273
      f+1     :     0.000968
      f-1     :     0.001326
      f+2     :     0.001484
      f-2     :     0.001502
      f+3     :     0.001666
      f-3     :     0.001369
  5 H s       :     0.846413  s :     0.846413
      pz      :     0.011774  p :     0.031630
      px      :     0.008520
      py      :     0.011336
      dz2     :     0.000331  d :     0.002277
      dxz     :     0.000484
      dyz     :     0.000297
      dx2y2   :     0.000685
      dxy     :     0.000479
  6 H s       :     0.813829  s :     0.813829
      pz      :     0.013670  p :     0.034294
      px      :     0.008063
      py      :     0.012561
      dz2     :     0.000601  d :     0.002312
      dxz     :     0.000392
      dyz     :     0.000398
      dx2y2   :     0.000458
      dxy     :     0.000464
  7 H s       :     0.813996  s :     0.813996
      pz      :     0.013703  p :     0.034321
      px      :     0.008041
      py      :     0.012577
      dz2     :     0.000599  d :     0.002313
      dxz     :     0.000389
      dyz     :     0.000401
      dx2y2   :     0.000463
      dxy     :     0.000461
  8 H s       :     0.846493  s :     0.846493
      pz      :     0.011776  p :     0.031643
      px      :     0.008525
      py      :     0.011342
      dz2     :     0.000336  d :     0.002276
      dxz     :     0.000478
      dyz     :     0.000300
      dx2y2   :     0.000687
      dxy     :     0.000475


                     *******************************
                     * LOEWDIN POPULATION ANALYSIS *
                     *******************************

----------------------
LOEWDIN ATOMIC CHARGES
----------------------
   0 C :   -0.029360
   1 C :   -0.213771
   2 S :    0.651279
   3 C :   -0.213790
   4 C :   -0.029314
   5 H :   -0.032160
   6 H :   -0.050357
   7 H :   -0.050367
   8 H :   -0.032160

-------------------------------
LOEWDIN REDUCED ORBITAL CHARGES
-------------------------------
  0 C s       :     2.706653  s :     2.706653
      pz      :     0.920921  p :     2.847884
      px      :     0.994493
      py      :     0.932470
      dz2     :     0.073063  d :     0.426450
      dxz     :     0.093789
      dyz     :     0.051911
      dx2y2   :     0.100740
      dxy     :     0.106947
      f0      :     0.005745  f :     0.048373
      f+1     :     0.006107
      f-1     :     0.004503
      f+2     :     0.005920
      f-2     :     0.008162
      f+3     :     0.010080
      f-3     :     0.007856
  1 C s       :     2.753425  s :     2.753425
      pz      :     0.969100  p :     2.969700
      px      :     1.028692
      py      :     0.971908
      dz2     :     0.046967  d :     0.445997
      dxz     :     0.122505
      dyz     :     0.051826
      dx2y2   :     0.095234
      dxy     :     0.129465
      f0      :     0.003915  f :     0.044650
      f+1     :     0.008505
      f-1     :     0.002514
      f+2     :     0.005546
      f-2     :     0.007076
      f+3     :     0.009831
      f-3     :     0.007263
  2 S s       :     5.252458  s :     5.252458
      pz      :     3.192811  p :     9.642534
      px      :     3.313105
      py      :     3.136617
      dz2     :     0.091639  d :     0.385945
      dxz     :     0.073050
      dyz     :     0.061284
      dx2y2   :     0.076283
      dxy     :     0.083690
      f0      :     0.004760  f :     0.067784
      f+1     :     0.013608
      f-1     :     0.003789
      f+2     :     0.009082
      f-2     :     0.011410
      f+3     :     0.013227
      f-3     :     0.011910
  3 C s       :     2.753424  s :     2.753424
      pz      :     0.968867  p :     2.969666
      px      :     1.028970
      py      :     0.971829
      dz2     :     0.047038  d :     0.446048
      dxz     :     0.122884
      dyz     :     0.051661
      dx2y2   :     0.094752
      dxy     :     0.129713
      f0      :     0.003970  f :     0.044651
      f+1     :     0.008429
      f-1     :     0.002535
      f+2     :     0.005591
      f-2     :     0.007036
      f+3     :     0.009793
      f-3     :     0.007296
  4 C s       :     2.706654  s :     2.706654
      pz      :     0.920805  p :     2.847896
      px      :     0.994623
      py      :     0.932468
      dz2     :     0.072514  d :     0.426389
      dxz     :     0.094258
      dyz     :     0.051834
      dx2y2   :     0.100666
      dxy     :     0.107116
      f0      :     0.005801  f :     0.048374
      f+1     :     0.006021
      f-1     :     0.004518
      f+2     :     0.005948
      f-2     :     0.008116
      f+3     :     0.010074
      f-3     :     0.007896
  5 H s       :     0.842529  s :     0.842529
      pz      :     0.047713  p :     0.160904
      px      :     0.064951
      py      :     0.048240
      dz2     :     0.004025  d :     0.028726
      dxz     :     0.007163
      dyz     :     0.002688
      dx2y2   :     0.007413
      dxy     :     0.007437
  6 H s       :     0.848406  s :     0.848406
      pz      :     0.064962  p :     0.171875
      px      :     0.038691
      py      :     0.068221
      dz2     :     0.007259  d :     0.030076
      dxz     :     0.004201
      dyz     :     0.008008
      dx2y2   :     0.005524
      dxy     :     0.005083
  7 H s       :     0.848423  s :     0.848423
      pz      :     0.064860  p :     0.171870
      px      :     0.038813
      py      :     0.068198
      dz2     :     0.007234  d :     0.030075
      dxz     :     0.004209
      dyz     :     0.007986
      dx2y2   :     0.005547
      dxy     :     0.005099
  8 H s       :     0.842527  s :     0.842527
      pz      :     0.047873  p :     0.160906
      px      :     0.064738
      py      :     0.048295
      dz2     :     0.004060  d :     0.028727
      dxz     :     0.007147
      dyz     :     0.002729
      dx2y2   :     0.007385
      dxy     :     0.007406


                      *****************************
                      * MAYER POPULATION ANALYSIS *
                      *****************************

  NA   - Mulliken gross atomic population
  ZA   - Total nuclear charge
  QA   - Mulliken gross atomic charge
  VA   - Mayer's total valence
  BVA  - Mayer's bonded valence
  FA   - Mayer's free valence

  ATOM       NA         ZA         QA         VA         BVA        FA
  0 C      6.1282     6.0000    -0.1282     3.8736     3.8736     0.0000
  1 C      6.2041     6.0000    -0.2041     3.8831     3.8831    -0.0000
  2 S     15.8740    16.0000     0.1260     2.7929     2.7929    -0.0000
  3 C      6.2038     6.0000    -0.2038     3.8832     3.8832    -0.0000
  4 C      6.1282     6.0000    -0.1282     3.8740     3.8740    -0.0000
  5 H      0.8803     1.0000     0.1197     0.9976     0.9976     0.0000
  6 H      0.8504     1.0000     0.1496     0.9924     0.9924    -0.0000
  7 H      0.8506     1.0000     0.1494     0.9924     0.9924    -0.0000
  8 H      0.8804     1.0000     0.1196     0.9976     0.9976     0.0000

  Mayer bond orders larger than 0.1
B(  0-C ,  1-C ) :   1.5278 B(  0-C ,  4-C ) :   1.2639 B(  0-C ,  5-H ) :   0.9639 
B(  1-C ,  2-S ) :   1.2763 B(  1-C ,  6-H ) :   0.9536 B(  2-S ,  3-C ) :   1.2763 
B(  3-C ,  4-C ) :   1.5280 B(  3-C ,  7-H ) :   0.9536 B(  4-C ,  8-H ) :   0.9640 


-------
TIMINGS
-------

Total SCF time: 0 days 0 hours 0 min 6 sec 

Total time                  ....       6.524 sec
Sum of individual times     ....       6.387 sec  ( 97.9%)

Fock matrix formation       ....       5.470 sec  ( 83.9%)
  XC integration            ....       1.183 sec  ( 21.6% of F)
    Basis function eval.    ....       0.268 sec  ( 22.7% of XC)
    Density eval.           ....       0.208 sec  ( 17.6% of XC)
    XC-Functional eval.     ....       0.035 sec  (  3.0% of XC)
    XC-Potential eval.      ....       0.614 sec  ( 51.9% of XC)
Diagonalization             ....       0.068 sec  (  1.0%)
Density matrix formation    ....       0.222 sec  (  3.4%)
Population analysis         ....       0.015 sec  (  0.2%)
Initial guess               ....       0.167 sec  (  2.6%)
Orbital Transformation      ....       0.000 sec  (  0.0%)
Orbital Orthonormalization  ....       0.000 sec  (  0.0%)
DIIS solution               ....       0.019 sec  (  0.3%)
SOSCF solution              ....       0.131 sec  (  2.0%)
Grid generation             ....       0.295 sec  (  4.5%)

-------------------------   --------------------
FINAL SINGLE POINT ENERGY      -552.202700032977
-------------------------   --------------------


                            ***************************************
                            *     ORCA property calculations      *
                            ***************************************

                                    ---------------------
                                    Active property flags
                                    ---------------------
   (+) Dipole Moment
   (+) Polarizability


------------------------------------------------------------------------------
                       ORCA ELECTRIC PROPERTIES CALCULATION
------------------------------------------------------------------------------

Dipole Moment Calculation                       ... on
Quadrupole Moment Calculation                   ... off
Polarizability Calculation                      ... Analytic (CP-SCF)
GBWName                                         ... system.gbw
Electron density file                           ... system.scfp.tmp
The origin for moment calculation is the CENTER OF MASS  = (19.750561, 19.480155 19.505000)

-------------
DIPOLE MOMENT
-------------
                                X             Y             Z
Electronic contribution:     -3.47732       0.00235      -0.01120
Nuclear contribution   :      3.63917      -0.00257       0.01150
                        -----------------------------------------
Total Dipole Moment    :      0.16185      -0.00023       0.00030
                        -----------------------------------------
Magnitude (a.u.)       :      0.16185
Magnitude (Debye)      :      0.41140

Transforming and storing MO dipole integrals   ... done

                ... starting polarizability calculation

Opening the Dipole integral file               ... (system.dmo.tmp) done
Reading Dipole-MO integrals                    ... done
Solving CP-SCF equations                       ... 

           ************************************************************
           *        Program running with 4 parallel MPI-processes     *
           *              working on a common directory               *
           ************************************************************

------------------------------------------------------------------------------
                           ORCA CP-SCF CALCULATION
------------------------------------------------------------------------------

Input orbitals are from        ... system.gbw
Input Perturbation             ... system.cpv.tmp
Wavefunction output            ... system.cpu.tmp
Perturbation mode              ... Real perturbation
Solver                         ... POPLE
Max. number of iterations      ... 64
Convergence tolerance          ... 1.000e-06
Integral handling              ... Direct
Number of perturbations        ... 3
Number of operators            ... 1
Orbital ranges used for CP-SCF:
 Operator 0:  Orbitals   0... 21  to  22...209
DFT calculation                         ... on
Exchange functional (SCF)               ... PBE
Exchange functional (CP-SCF)            ... PBE
   PBE kappa parameter  XKappa (SCF)    ...  0.804000
   PBE kappa parameter  XKappa (CP-SCF) ...  0.804000
   PBE mue parameter   XMuePBE (SCF)    ...  0.219520
   PBE mue parameter   XMuePBE (CP-SCF) ...  0.219520
Correlation functional (SCF)            ... PBE
Correlation functional (CP-SCF)         ... PBE
   PBE beta parameter CBetaPBE (SCF)    ...  0.066725
   PBE beta parameter CBetaPBE (CP-SCF) ...  0.066725
 LDA part of GGA corr.  LDAOpt (SCF)    ... PW91-LDA
 LDA part of GGA corr.  LDAOpt (CP-SCF) ... PW91-LDA
Hybrid DFT                              ... on
   Exchange mixing (SCF)                ...  0.250
   Exchange mixing (CP-SCF)             ...  0.250
   GGA exch. scaling(SCF)               ...  0.750
   GGA exch. scaling (CP-SCF)           ...  0.750
   GGA corr. scaling (SCF)              ...  1.000
   GGA corr. scaling (CP-SCF)           ...  1.000
Variables per vector in CP-SCF ... 4136
Number of vectors sought       ... 3
Recalculating density on grid  ... done
Calculating the xc-kernel      ... done
     CP-SCF ITERATION   0: 
     CP-SCF ITERATION   1:      0.839900299494
     CP-SCF ITERATION   2:      0.047315646141
     CP-SCF ITERATION   3:      0.002243947814
     CP-SCF ITERATION   4:      0.000256409353
     CP-SCF ITERATION   5:      0.000011994335
     CP-SCF ITERATION   6:      0.000000786362
done
Reading CP-SCF coefficients                    ... done
Doing the polarizability tensor   ... done
Cleaning up                                    ... done

-------------------------
THE POLARIZABILITY TENSOR
-------------------------

The raw cartesian tensor (atomic units):
   70.57671      0.03895      0.06493  
    0.03895     50.72019    -15.77768  
    0.06493    -15.77768     47.14291  
diagonalized tensor: 
   33.05266     64.81026     70.57689  

    0.00198     -0.00246      1.00000  
   -0.66609     -0.74587     -0.00052  
   -0.74587      0.66609      0.00312  

Isotropic polarizability :  56.14660

------------------------------------------------------------------------------
                      ORCA CHELPG CHARGES GENERATION
------------------------------------------------------------------------------

GBW file                           ... system.gbw

Reading the GBW file               ... done

Grid spacing                       ...     0.300000
Point Cut-Off                      ...     2.800000
Van-der-Waals Radii                ...        COSMO
Total charge                       ...            0


Number of points X direction       ...           29
Number of points Y direction       ...           29
Number of points Z direction       ...           28
Maximum number of possible points  ...        23548
Final number of points             ...         7050


CHELPG Charges            
--------------------------------
  0   C   :      -0.151649
  1   C   :      -0.204965
  2   S   :       0.054449
  3   C   :      -0.210300
  4   C   :      -0.150349
  5   H   :       0.145608
  6   H   :       0.184535
  7   H   :       0.186801
  8   H   :       0.145870
--------------------------------
Total charge:    -0.000000
--------------------------------

CHELPG charges calculated...

Timings for individual parts in CHELPG calculation:
Grid generation                 ...        0.003 sec (=   0.000 min)
Potential calculation           ...        4.638 sec (=   0.077 min)
Fit to the potential            ...        0.006 sec (=   0.000 min)
------------------------------------------------------------------------------


Timings for individual modules:

Sum of individual times         ...       71.810 sec (=   1.197 min)
GTO integral calculation        ...        0.352 sec (=   0.006 min)   0.5 %
SCF iterations                  ...        6.584 sec (=   0.110 min)   9.2 %
Solution of CP-SCF eqns.        ...       59.829 sec (=   0.997 min)  83.3 %
CHELPG charge generation        ...        5.046 sec (=   0.084 min)   7.0 %
                             ****ORCA TERMINATED NORMALLY****
TOTAL RUN TIME: 0 days 0 hours 1 minutes 12 seconds 24 msec
